27
Lattice="1.1209513607476867e-09 0 0 0 1.1209513607476867e-09 0 0 0 1.1209513607476867e-09" Properties=species:S:1:pos:R:3 Step=0
Ar 1.856243 1.779771 1.877459
Ar 1.855814 1.853107 5.573104
Ar 1.812992 1.890615 9.303815
Ar 1.824723 5.627191 1.873178
Ar 1.801242 5.607304 5.545866
Ar 1.921812 5.670813 9.340364
Ar 1.932850 9.262794 1.869133
Ar 1.787640 9.328177 5.529481
Ar 1.798717 9.359403 9.290044
Ar 5.531419 1.816111 1.840369
Ar 5.598681 1.814516 5.629736
Ar 5.601614 1.869201 9.321356
Ar 5.659425 5.619594 1.805301
Ar 5.641889 5.691307 5.604715
Ar 5.676958 5.575528 9.353669
Ar 5.591298 9.329443 1.919520
Ar 5.610550 9.424127 5.613149
Ar 5.526798 9.316008 9.406964
Ar 9.323680 1.780027 1.821239
Ar 9.260925 1.959690 5.692575
Ar 9.397433 1.886849 9.390706
Ar 9.279603 5.566059 1.872877
Ar 9.313283 5.519276 5.693296
Ar 9.330415 5.605535 9.310023
Ar 9.296439 9.320026 1.929417
Ar 9.386196 9.319459 5.513960
Ar 9.396552 9.298679 9.356817
27
Lattice="1.1209513607476867e-09 0 0 0 1.1209513607476867e-09 0 0 0 1.1209513607476867e-09" Properties=species:S:1:pos:R:3 Step=1
Ar 1.851824 1.789252 1.872518
Ar 1.826014 1.829844 5.577298
Ar 1.806574 1.898492 9.302787
Ar 1.826503 5.608668 1.830919
Ar 1.895270 5.607874 5.552138
Ar 1.942086 5.663823 9.354191
Ar 1.920718 9.268011 1.860664
Ar 1.837313 9.358030 5.538500
Ar 1.808738 9.364505 9.285563
Ar 5.538674 1.824725 1.854769
Ar 5.594273 1.953020 5.534932
Ar 5.603896 1.866366 9.409920
Ar 5.643076 5.610037 1.818391
Ar 5.608443 5.669271 5.602436
Ar 5.630372 5.607133 9.339486
Ar 5.598186 9.329735 1.887544
Ar 5.542581 9.295307 5.624336
Ar 5.536824 9.293140 9.419649
Ar 9.317266 1.789457 1.841038
Ar 9.305617 1.889380 5.686761
Ar 9.403272 1.851651 9.383399
Ar 9.292362 5.563122 1.886050
Ar 9.224591 5.471862 5.572466
Ar 9.340955 5.607509 9.431117
Ar 9.302233 9.310390 1.860043
Ar 9.441640 9.380065 5.528876
Ar 9.372503 9.339507 9.364478
27
Lattice="1.1209513607476867e-09 0 0 0 1.1209513607476867e-09 0 0 0 1.1209513607476867e-09" Properties=species:S:1:pos:R:3 Step=2
Ar 1.846916 1.800680 1.866857
Ar 1.794818 1.805739 5.583213
Ar 1.801423 1.909402 9.300296
Ar 1.826622 5.586554 1.790053
Ar 1.960593 5.608497 5.560805
Ar 1.960446 5.656148 9.365495
Ar 1.905924 9.272806 1.852063
Ar 1.881609 9.389322 5.546975
Ar 1.818512 9.370049 9.279328
Ar 5.545978 1.830752 1.869193
Ar 5.591633 2.036729 5.468511
Ar 5.607170 1.861503 9.467396
Ar 5.625057 5.598873 1.833343
Ar 5.574896 5.642885 5.604304
Ar 5.588070 5.638550 9.318466
Ar 5.607356 9.332687 1.858703
Ar 5.488377 9.224909 5.637426
Ar 5.550098 9.271598 9.431999
Ar 9.308752 1.800738 1.865374
Ar 9.349882 1.827795 5.686702
Ar 9.408378 1.817876 9.372463
Ar 9.308055 5.560952 1.902151
Ar 9.160769 5.432005 5.498965
Ar 9.352518 5.608817 9.500379
Ar 9.309400 9.296956 1.798212
Ar 9.486305 9.430629 5.543582
Ar 9.342881 9.379785 9.366399
27
Lattice="1.1209513607476867e-09 0 0 0 1.1209513607476867e-09 0 0 0 1.1209513607476867e-09" Properties=species:S:1:pos:R:3 Step=3
Ar 1.840495 1.815381 1.859123
Ar 1.762916 1.782377 5.591423
Ar 1.798664 1.927086 9.295309
Ar 1.824967 5.556546 1.748627
Ar 2.005422 5.609671 5.571531
Ar 1.976097 5.647493 9.373256
Ar 1.885213 9.276771 1.842429
Ar 1.908993 9.426126 5.553513
Ar 1.828310 9.377389 9.269866
Ar 5.553807 1.831271 1.876530
Ar 5.590833 2.095614 5.418196
Ar 5.612577 1.855049 9.507119
Ar 5.602598 5.584272 1.852254
Ar 5.552795 5.626483 5.614916
Ar 5.550447 5.669690 9.286321
Ar 5.620795 9.338907 1.834629
Ar 5.447450 9.180135 5.654610
Ar 5.569838 9.250520 9.445278
Ar 9.295275 1.815528 1.900399
Ar 9.392584 1.796884 5.695004
Ar 9.412956 1.786292 9.357856
Ar 9.331967 5.561514 1.914512
Ar 9.105855 5.391829 5.448648
Ar 9.366276 5.610263 9.544429
Ar 9.320631 9.276153 1.738629
Ar 9.526911 9.467507 5.558555
Ar 9.299993 9.420947 9.357892
27
Lattice="1.1209513607476867e-09 0 0 0 1.1209513607476867e-09 0 0 0 1.1209513607476867e-09" Properties=species:S:1:pos:R:3 Step=4
Ar 1.830041 1.833480 1.847290
Ar 1.738477 1.768683 5.601684
Ar 1.802264 1.959520 9.285666
Ar 1.822180 5.511230 1.708656
Ar 2.020539 5.613307 5.584519
Ar 1.985010 5.640106 9.372568
Ar 1.854431 9.277333 1.830159
Ar 1.905460 9.472788 5.551903
Ar 1.836882 9.389710 9.253754
Ar 5.560690 1.817034 1.864140
Ar 5.592835 2.132413 5.382819
Ar 5.623063 1.846359 9.527402
Ar 5.571930 5.562989 1.879092
Ar 5.555305 5.645693 5.645757
Ar 5.525451 5.694990 9.236146
Ar 5.641946 9.348831 1.825639
Ar 5.428335 9.156467 5.682094
Ar 5.599196 9.231751 9.462966
Ar 9.270592 1.835094 1.959611
Ar 9.428280 1.823282 5.722150
Ar 9.418480 1.765275 9.343134
Ar 9.375623 5.570275 1.911785
Ar 9.050784 5.345561 5.419178
Ar 9.385311 5.613373 9.565736
Ar 9.341598 9.241687 1.678533
Ar 9.565875 9.477260 5.572538
Ar 9.228625 9.459519 9.326648
27
Lattice="1.1209513607476867e-09 0 0 0 1.1209513607476867e-09 0 0 0 1.1209513607476867e-09" Properties=species:S:1:pos:R:3 Step=5
Ar 1.812968 1.841192 1.832590
Ar 1.748228 1.789470 5.606768
Ar 1.818891 2.006959 9.271701
Ar 1.825601 5.457905 1.690642
Ar 1.981932 5.623489 5.594088
Ar 1.982111 5.647477 9.357347
Ar 1.823702 9.267510 1.815217
Ar 1.899477 9.514225 5.527508
Ar 1.836571 9.410157 9.230719
Ar 5.556954 1.777544 1.835804
Ar 5.598188 2.132971 5.375608
Ar 5.640743 1.836977 9.504972
Ar 5.541646 5.536708 1.911725
Ar 5.551617 5.690015 5.699011
Ar 5.537351 5.691879 9.186255
Ar 5.668313 9.354340 1.858443
Ar 5.448166 9.180692 5.722744
Ar 5.620385 9.223991 9.492434
Ar 9.233123 1.851252 2.046753
Ar 9.442420 1.855229 5.783239
Ar 9.430274 1.778164 9.351526
Ar 9.440088 5.591591 1.898625
Ar 9.010870 5.311728 5.421273
Ar 9.408029 5.620886 9.544093
Ar 9.372803 9.200842 1.633630
Ar 9.584026 9.443181 5.574672
Ar 9.133031 9.475025 9.267284
27
Lattice="1.1209513607476867e-09 0 0 0 1.1209513607476867e-09 0 0 0 1.1209513607476867e-09" Properties=species:S:1:pos:R:3 Step=6
Ar 1.793786 1.818485 1.823503
Ar 1.790045 1.838374 5.597082
Ar 1.841741 2.038796 9.262912
Ar 1.845099 5.434339 1.708783
Ar 1.910947 5.640227 5.590257
Ar 1.981872 5.680366 9.343728
Ar 1.824283 9.247327 1.801634
Ar 1.934731 9.522438 5.484824
Ar 1.820019 9.432189 9.212201
Ar 5.534507 1.736421 1.821753
Ar 5.605424 2.109865 5.391226
Ar 5.657550 1.831838 9.448847
Ar 5.540462 5.519504 1.931757
Ar 5.493395 5.696685 5.727207
Ar 5.582663 5.656368 9.195304
Ar 5.683750 9.338767 1.925052
Ar 5.492339 9.247680 5.758715
Ar 5.591875 9.225877 9.534863
Ar 9.204699 1.849589 2.115736
Ar 9.434061 1.794506 5.854256
Ar 9.450768 1.816145 9.407756
Ar 9.480644 5.607332 1.897329
Ar 9.007303 5.316613 5.441264
Ar 9.421344 5.632153 9.492030
Ar 9.391667 9.191404 1.624844
Ar 9.569249 9.388605 5.553728
Ar 9.080532 9.461549 9.224706
27
Lattice="1.1209513607476867e-09 0 0 0 1.1209513607476867e-09 0 0 0 1.1209513607476867e-09" Properties=species:S:1:pos:R:3 Step=7
Ar 1.772649 1.775162 1.819194
Ar 1.825121 1.879436 5.577680
Ar 1.861953 2.049477 9.260618
Ar 1.877209 5.438206 1.738611
Ar 1.843166 5.662407 5.577387
Ar 1.999912 5.728188 9.346223
Ar 1.854763 9.222031 1.785823
Ar 1.967973 9.514584 5.441084
Ar 1.788517 9.454165 9.197594
Ar 5.499680 1.711968 1.810881
Ar 5.616460 2.096456 5.399026
Ar 5.671047 1.827810 9.400776
Ar 5.571498 5.510337 1.937114
Ar 5.426154 5.691932 5.717752
Ar 5.629551 5.618924 9.257840
Ar 5.688515 9.302799 1.991632
Ar 5.533908 9.305273 5.789387
Ar 5.520416 9.222637 9.587614
Ar 9.190808 1.836815 2.155407
Ar 9.418093 1.716301 5.914428
Ar 9.476222 1.844881 9.502172
Ar 9.484439 5.606224 1.893062
Ar 9.008800 5.325381 5.453861
Ar 9.426883 5.645841 9.449821
Ar 9.392083 9.218282 1.632908
Ar 9.556322 9.339699 5.516130
Ar 9.079391 9.448393 9.216796
27
Lattice="1.1209513607476867e-09 0 0 0 1.1209513607476867e-09 0 0 0 1.1209513607476867e-09" Properties=species:S:1:pos:R:3 Step=8
Ar 1.743864 1.725078 1.814283
Ar 1.838454 1.903315 5.555056
Ar 1.880767 2.056335 9.258343
Ar 1.916089 5.445225 1.762530
Ar 1.783533 5.691711 5.563838
Ar 2.035374 5.781822 9.359769
Ar 1.899554 9.190763 1.760061
Ar 1.980944 9.513177 5.399799
Ar 1.739931 9.481883 9.176711
Ar 5.455931 1.696473 1.787157
Ar 5.634005 2.107243 5.382571
Ar 5.686693 1.818512 9.373002
Ar 5.626391 5.498445 1.936955
Ar 5.380966 5.711247 5.699251
Ar 5.666073 5.594589 9.336850
Ar 5.692136 9.254308 2.051825
Ar 5.565390 9.334801 5.830477
Ar 5.430864 9.210071 9.649440
Ar 9.179573 1.823034 2.190873
Ar 9.404081 1.679852 5.980748
Ar 9.504357 1.857540 9.624154
Ar 9.471609 5.595103 1.873561
Ar 8.985324 5.307415 5.450429
Ar 9.435355 5.662697 9.427537
Ar 9.385649 9.264753 1.637261
Ar 9.566665 9.297948 5.468205
Ar 9.091079 9.451427 9.221079
27
Lattice="1.1209513607476867e-09 0 0 0 1.1209513607476867e-09 0 0 0 1.1209513607476867e-09" Properties=species:S:1:pos:R:3 Step=9
Ar 1.707962 1.683255 1.806569
Ar 1.831812 1.913633 5.536143
Ar 1.898281 2.072432 9.250509
Ar 1.952286 5.437006 1.771538
Ar 1.739332 5.723234 5.557551
Ar 2.075225 5.827875 9.372335
Ar 1.940493 9.157263 1.723876
Ar 1.994187 9.529583 5.365505
Ar 1.680030 9.514592 9.145348
Ar 5.409673 1.680818 1.757152
Ar 5.654294 2.139343 5.344091
Ar 5.706615 1.802127 9.361413
Ar 5.688345 5.477214 1.939981
Ar 5.351207 5.747840 5.695843
Ar 5.686359 5.586657 9.395815
Ar 5.701077 9.208993 2.102368
Ar 5.582694 9.341004 5.885797
Ar 5.351453 9.193612 9.708480
Ar 9.161785 1.816422 2.239915
Ar 9.400309 1.673335 6.063663
Ar 9.529478 1.859307 9.746484
Ar 9.464238 5.585436 1.850874
Ar 8.933954 5.262119 5.431333
Ar 9.452636 5.680114 9.420507
Ar 9.383407 9.309212 1.625350
Ar 9.597164 9.268709 5.422312
Ar 9.084704 9.471802 9.213511
27
Lattice="1.1209513607476867e-09 0 0 0 1.1209513607476867e-09 0 0 0 1.1209513607476867e-09" Properties=species:S:1:pos:R:3 Step=10
Ar 1.667648 1.654096 1.795967
Ar 1.818893 1.923740 5.522717
Ar 1.915444 2.102021 9.235841
Ar 1.982416 5.408223 1.769396
Ar 1.705678 5.751771 5.560015
Ar 2.107340 5.862207 9.376275
Ar 1.967837 9.125208 1.682111
Ar 2.026067 9.561976 5.334734
Ar 1.618156 9.548254 9.105390
Ar 5.363280 1.657479 1.731620
Ar 5.671666 2.175490 5.299755
Ar 5.730572 1.781587 9.349882
Ar 5.741620 5.445974 1.951767
Ar 5.314350 5.777407 5.713204
Ar 5.698471 5.585340 9.421662
Ar 5.717993 9.176359 2.149417
Ar 5.593983 9.345602 5.950181
Ar 5.291644 9.180181 9.759946
Ar 9.132856 1.819445 2.311944
Ar 9.406617 1.658136 6.164507
Ar 9.550047 1.861340 9.851958
Ar 9.477726 5.585865 1.840105
Ar 8.873613 5.209440 5.406011
Ar 9.477726 5.695966 9.413822
Ar 9.390230 9.338943 1.594298
Ar 9.630914 9.248912 5.385983
Ar 9.047349 9.499497 9.183332
27
Lattice="1.1209513607476867e-09 0 0 0 1.1209513607476867e-09 0 0 0 1.1209513607476867e-09" Properties=species:S:1:pos:R:3 Step=11
Ar 1.623557 1.632029 1.782964
Ar 1.809564 1.943968 5.511562
Ar 1.933794 2.141428 9.217155
Ar 2.010081 5.364658 1.765413
Ar 1.670717 5.776624 5.567172
Ar 2.129498 5.890637 9.373250
Ar 1.982896 9.094711 1.639517
Ar 2.068758 9.600421 5.298800
Ar 1.559756 9.579917 9.061045
Ar 5.314992 1.623667 1.709087
Ar 5.683304 2.201644 5.261661
Ar 5.757493 1.760519 9.328608
Ar 5.781296 5.408737 1.971225
Ar 5.266338 5.792462 5.744714
Ar 5.714716 5.580439 9.423702
Ar 5.742111 9.154292 2.201176
Ar 5.610422 9.361809 6.017650
Ar 5.243611 9.171548 9.809645
Ar 9.093434 1.828603 2.405404
Ar 9.414955 1.623992 6.277728
Ar 9.568746 1.870226 9.944345
Ar 9.514755 5.598670 1.839379
Ar 8.821416 5.164929 5.383660
Ar 9.506322 5.710283 9.398468
Ar 9.405026 9.355314 1.549343
Ar 9.658094 9.230220 5.357422
Ar 8.981965 9.524805 9.135200
27
Lattice="1.1209513607476867e-09 0 0 0 1.1209513607476867e-09 0 0 0 1.1209513607476867e-09" Properties=species:S:1:pos:R:3 Step=12
Ar 1.575214 1.609962 1.768444
Ar 1.804496 1.974879 5.499189
Ar 1.953867 2.183387 9.198527
Ar 2.040435 5.315804 1.765650
Ar 1.628633 5.799698 5.574380
Ar 2.146952 5.919981 9.369624
Ar 1.991480 9.064305 1.599009
Ar 2.107028 9.635539 5.253101
Ar 1.506337 9.608542 9.016079
Ar 5.264533 1.581871 1.682762
Ar 5.688400 2.213528 5.232080
Ar 5.785808 1.741160 9.299200
Ar 5.810685 5.371026 1.993071
Ar 5.220667 5.803371 5.780727
Ar 5.739901 5.569353 9.418159
Ar 5.770920 9.136053 2.259820
Ar 5.635443 9.387044 6.083765
Ar 5.197148 9.165102 9.864308
Ar 9.048138 1.838226 2.509278
Ar 9.417389 1.586658 6.390677
Ar 9.587523 1.885222 10.034375
Ar 9.567575 5.621015 1.838520
Ar 8.782836 5.132269 5.368309
Ar 9.534463 5.723769 9.375527
Ar 9.423873 9.366294 1.498396
Ar 9.678743 9.208606 5.331571
Ar 8.900051 9.543783 9.081524
27
Lattice="1.1209513607476867e-09 0 0 0 1.1209513607476867e-09 0 0 0 1.1209513607476867e-09" Properties=species:S:1:pos:R:3 Step=13
Ar 1.521641 1.583042 1.753454
Ar 1.799053 2.010439 5.484062
Ar 1.975426 2.222709 9.182248
Ar 2.077615 5.267550 1.771502
Ar 1.581670 5.823665 5.579464
Ar 2.166972 5.954222 9.370294
Ar 1.999294 9.031897 1.560458
Ar 2.139981 9.664488 5.199305
Ar 1.455683 9.635468 8.971012
Ar 5.212648 1.536486 1.651283
Ar 5.686858 2.215135 5.206178
Ar 5.814920 1.723689 9.267382
Ar 5.837173 5.335570 2.013089
Ar 5.184689 5.818175 5.813391
Ar 5.771600 5.554790 9.417641
Ar 5.802803 9.115733 2.324085
Ar 5.664996 9.413550 6.147890
Ar 5.145313 9.157713 9.926601
Ar 9.001713 1.844061 2.612718
Ar 9.412320 1.558715 6.493432
Ar 9.606327 1.902608 10.130036
Ar 9.625367 5.647537 1.834111
Ar 8.754041 5.108131 5.358183
Ar 9.560997 5.737290 9.349641
Ar 9.442727 9.379867 1.446598
Ar 9.696421 9.185273 5.304292
Ar 8.813414 9.557178 9.032936
27
Lattice="1.1209513607476867e-09 0 0 0 1.1209513607476867e-09 0 0 0 1.1209513607476867e-09" Properties=species:S:1:pos:R:3 Step=14
Ar 1.462974 1.549584 1.739176
Ar 1.788558 2.044473 5.466539
Ar 1.997805 2.258035 9.168563
Ar 2.123122 5.220456 1.782260
Ar 1.535754 5.850275 5.582736
Ar 2.193320 5.993911 9.376015
Ar 2.009012 8.995762 1.522514
Ar 2.175002 9.689248 5.141970
Ar 1.404745 9.662754 8.924087
Ar 5.159795 1.490532 1.617859
Ar 5.678249 2.212616 5.178718
Ar 5.845139 1.707414 9.237389
Ar 5.867261 5.302013 2.029755
Ar 5.154209 5.835076 5.838610
Ar 5.805617 5.540024 9.427095
Ar 5.837647 9.090781 2.392075
Ar 5.693541 9.436293 6.211599
Ar 5.086282 9.148825 9.994464
Ar 8.957447 1.843876 2.709163
Ar 9.402869 1.540997 6.583146
Ar 9.623554 1.920190 10.231320
Ar 9.681001 5.673750 1.829315
Ar 8.728883 5.088554 5.349480
Ar 9.587044 5.751387 9.324267
Ar 9.459027 9.400138 1.395925
Ar 9.713579 9.163742 5.274187
Ar 8.730656 9.566384 8.994605
27
Lattice="1.1209513607476867e-09 0 0 0 1.1209513607476867e-09 0 0 0 1.1209513607476867e-09" Properties=species:S:1:pos:R:3 Step=15
Ar 1.401367 1.509972 1.726974
Ar 1.770160 2.074255 5.447849
Ar 2.020314 2.290516 9.156944
Ar 2.175801 5.171952 1.796983
Ar 1.495272 5.879884 5.585506
Ar 2.225269 6.037435 9.384833
Ar 2.019826 8.954784 1.484727
Ar 2.215918 9.712683 5.084626
Ar 1.351704 9.691816 8.873326
Ar 5.105791 1.444598 1.584880
Ar 5.661646 2.209657 5.147795
Ar 5.876877 1.692028 9.210957
Ar 5.904799 5.268703 2.042978
Ar 5.123923 5.849449 5.856429
Ar 5.839394 5.526965 9.445317
Ar 5.875987 9.061376 2.461921
Ar 5.717754 9.453447 6.276177
Ar 5.022721 9.140393 10.063528
Ar 8.917645 1.836256 2.795342
Ar 9.392690 1.530039 6.661712
Ar 9.636817 1.938608 10.331781
Ar 9.732999 5.697794 1.826919
Ar 8.702993 5.071403 5.339938
Ar 9.614467 5.766117 9.300934
Ar 9.471946 9.427082 1.347162
Ar 9.730752 9.147277 5.241842
Ar 8.658183 9.571401 8.968284
27
Lattice="1.1209513607476867e-09 0 0 0 1.1209513607476867e-09 0 0 0 1.1209513607476867e-09" Properties=species:S:1:pos:R:3 Step=16
Ar 1.340566 1.465010 1.718263
Ar 1.742342 2.100465 5.429356
Ar 2.042640 2.322076 9.147076
Ar 2.233322 5.118731 1.814986
Ar 1.461060 5.911848 5.588864
Ar 2.259915 6.082574 9.394404
Ar 2.028269 8.908061 1.448428
Ar 2.261456 9.736671 5.028412
Ar 1.296651 9.723126 8.817599
Ar 5.050264 1.397510 1.552457
Ar 5.635811 2.206564 5.114594
Ar 5.910163 1.678118 9.188120
Ar 5.951361 5.233950 2.052779
Ar 5.093133 5.859075 5.869761
Ar 5.872564 5.516458 9.468242
Ar 5.918231 9.028749 2.531777
Ar 5.736284 9.464805 6.341325
Ar 4.960145 9.135389 10.129520
Ar 8.884025 1.819862 2.870073
Ar 9.383980 1.523524 6.731971
Ar 9.643596 1.960717 10.423129
Ar 9.783938 5.720032 1.827250
Ar 8.674865 5.056392 5.329527
Ar 9.644827 5.781225 9.279733
Ar 9.481856 9.458019 1.301208
Ar 9.747066 9.137945 5.208444
Ar 8.601741 9.571001 8.955217
27
Lattice="1.1209513607476867e-09 0 0 0 1.1209513607476867e-09 0 0 0 1.1209513607476867e-09" Properties=species:S:1:pos:R:3 Step=17
Ar 1.284775 1.414914 1.714090
Ar 1.704122 2.125345 5.412330
Ar 2.064929 2.354213 9.139170
Ar 2.293857 5.058157 1.835807
Ar 1.431584 5.945173 5.593248
Ar 2.294755 6.127394 9.403200
Ar 2.029412 8.854353 1.416514
Ar 2.308562 9.762123 4.972851
Ar 1.241863 9.756447 8.756863
Ar 4.993510 1.347573 1.519877
Ar 5.599591 2.201699 5.081522
Ar 5.944525 1.667120 9.168312
Ar 6.006949 5.196459 2.058626
Ar 5.063916 5.864015 5.882147
Ar 5.906093 5.509144 9.491698
Ar 5.964201 8.993913 2.599712
Ar 5.748407 9.470569 6.405153
Ar 4.905374 9.136625 10.189228
Ar 8.857418 1.793625 2.933832
Ar 9.377452 1.520977 6.795278
Ar 9.641917 1.990458 10.498999
Ar 9.837802 5.741611 1.829772
Ar 8.645196 5.044156 5.319381
Ar 9.679020 5.796318 9.259996
Ar 9.489552 9.489323 1.259683
Ar 9.760831 9.136834 5.175083
Ar 8.566508 9.563819 8.956699
27
Lattice="1.1209513607476867e-09 0 0 0 1.1209513607476867e-09 0 0 0 1.1209513607476867e-09" Properties=species:S:1:pos:R:3 Step=18
Ar 1.237452 1.359564 1.714358
Ar 1.655051 2.150831 5.398037
Ar 2.087396 2.387271 9.133853
Ar 2.356501 4.989187 1.859015
Ar 1.405144 5.978865 5.598452
Ar 2.328861 6.170242 9.410529
Ar 2.018546 8.792082 1.392491
Ar 2.354299 9.789409 4.917573
Ar 1.192247 9.790977 8.692459
Ar 4.937583 1.293851 1.487219
Ar 5.552762 2.193333 5.050831
Ar 5.978802 1.661006 9.151182
Ar 6.070152 5.155542 2.059246
Ar 5.037883 5.864529 5.895978
Ar 5.941025 5.506136 9.512547
Ar 6.012566 8.957293 2.663190
Ar 5.753641 9.470825 6.464819
Ar 4.865207 9.146075 10.240598
Ar 8.837145 1.757711 2.988259
Ar 9.372929 1.522611 6.850678
Ar 9.631427 2.031443 10.556762
Ar 9.897645 5.763061 1.834536
Ar 8.615662 5.035224 5.310643
Ar 9.717129 5.810830 9.241079
Ar 9.495633 9.517596 1.225505
Ar 9.770039 9.144454 5.142900
Ar 8.554919 9.549756 8.971494
27
Lattice="1.1209513607476867e-09 0 0 0 1.1209513607476867e-09 0 0 0 1.1209513607476867e-09" Properties=species:S:1:pos:R:3 Step=19
Ar 1.199824 1.299348 1.717013
Ar 1.595874 2.177659 5.387552
Ar 2.109886 2.420357 9.131785
Ar 2.420899 4.912730 1.884069
Ar 1.381089 6.012200 5.603728
Ar 2.362993 6.209685 9.416176
Ar 1.993877 8.719879 1.378545
Ar 2.396227 9.818613 4.863673
Ar 1.154883 9.825536 8.627147
Ar 4.886596 1.236880 1.455826
Ar 5.496813 2.180792 5.024047
Ar 6.011158 1.661662 9.136685
Ar 6.138297 5.111120 2.052942
Ar 5.014741 5.859888 5.911797
Ar 5.977777 5.509184 9.528761
Ar 6.060475 8.918693 2.719221
Ar 5.752426 9.465667 6.517813
Ar 4.843900 9.164034 10.283717
Ar 8.820507 1.714596 3.035554
Ar 9.369716 1.528202 6.894551
Ar 9.614588 2.085140 10.598407
Ar 9.964273 5.783556 1.842272
Ar 8.587845 5.029389 5.303888
Ar 9.758489 5.824032 9.222837
Ar 9.500155 9.540563 1.203731
Ar 9.773036 9.160589 5.113368
Ar 8.563191 9.531211 8.992622
27
Lattice="1.1209513607476867e-09 0 0 0 1.1209513607476867e-09 0 0 0 1.1209513607476867e-09" Properties=species:S:1:pos:R:3 Step=20
Ar 1.170261 1.235533 1.718308
Ar 1.528984 2.205539 5.381052
Ar 2.131737 2.451964 9.133192
Ar 2.486913 4.831022 1.910433
Ar 1.359576 6.045132 5.607950
Ar 2.399106 6.244852 9.420057
Ar 1.958813 8.637401 1.373933
Ar 2.432737 9.849679 4.812390
Ar 1.136679 9.858980 8.564958
Ar 4.845488 1.178538 1.427720
Ar 5.434653 2.164586 5.001864
Ar 6.039600 1.670154 9.124644
Ar 6.208392 5.063319 2.038241
Ar 4.992940 5.848690 5.928574
Ar 6.016366 5.520356 9.539210
Ar 6.103922 8.877092 2.765696
Ar 5.746236 9.455501 6.563001
Ar 4.840535 9.188309 10.321828
Ar 8.803153 1.669147 3.076972
Ar 9.366619 1.536662 6.926671
Ar 9.596412 2.149412 10.631034
Ar 10.036124 5.800919 1.853737
Ar 8.562576 5.025793 5.299072
Ar 9.802130 5.835380 9.205616
Ar 9.502254 9.557692 1.195082
Ar 9.769294 9.183914 5.088250
Ar 8.582094 9.513049 9.009338
27
Lattice="1.1209513607476867e-09 0 0 0 1.1209513607476867e-09 0 0 0 1.1209513607476867e-09" Properties=species:S:1:pos:R:3 Step=21
Ar 1.145808 1.169804 1.714430
Ar 1.457980 2.233925 5.377188
Ar 2.151902 2.480896 9.137630
Ar 2.554418 4.746418 1.937794
Ar 1.340789 6.078491 5.609816
Ar 2.439312 6.275496 9.421804
Ar 1.921061 8.546125 1.375857
Ar 2.463287 9.882435 4.764461
Ar 1.141528 9.890503 8.509080
Ar 4.818100 1.121512 1.404846
Ar 5.369387 2.145771 4.984446
Ar 6.062627 1.686473 9.114500
Ar 6.278394 5.011960 2.014402
Ar 4.971213 5.829949 5.944608
Ar 6.057125 5.541564 9.543256
Ar 6.138790 8.830464 2.802677
Ar 5.736408 9.441052 6.600569
Ar 4.849734 9.214436 10.359692
Ar 8.780493 1.627286 3.113313
Ar 9.362026 1.546558 6.950786
Ar 9.581971 2.218807 10.663078
Ar 10.109916 5.812134 1.869194
Ar 8.539859 5.023499 5.295878
Ar 9.847404 5.845026 9.189953
Ar 9.499959 9.569614 1.194221
Ar 9.759661 9.212116 5.069265
Ar 8.603283 9.500720 9.013834
27
Lattice="1.1209513607476867e-09 0 0 0 1.1209513607476867e-09 0 0 0 1.1209513607476867e-09" Properties=species:S:1:pos:R:3 Step=22
Ar 1.124574 1.103749 1.703005
Ar 1.386887 2.262643 5.373176
Ar 2.169000 2.506714 9.144050
Ar 2.622771 4.661021 1.965976
Ar 1.324643 6.113581 5.608020
Ar 2.484624 6.301400 9.420402
Ar 1.889304 8.450182 1.381929
Ar 2.487864 9.916355 4.721256
Ar 1.169080 9.919495 8.461649
Ar 4.806123 1.069113 1.388735
Ar 5.303553 2.125323 4.971793
Ar 6.079438 1.709784 9.105632
Ar 6.347444 4.956572 1.981561
Ar 4.949367 5.803960 5.958350
Ar 6.101050 5.574057 9.540311
Ar 6.161860 8.776080 2.832297
Ar 5.723170 9.423199 6.631402
Ar 4.865397 9.236927 10.398345
Ar 8.749465 1.594047 3.144686
Ar 9.354490 1.557008 6.972839
Ar 9.573597 2.286199 10.700565
Ar 10.181092 5.813835 1.888294
Ar 8.519303 5.022011 5.294153
Ar 9.894154 5.854008 9.176373
Ar 9.490879 9.576416 1.192177
Ar 9.745889 9.242474 5.057694
Ar 8.624163 9.497998 9.004965
27
Lattice="1.1209513607476867e-09 0 0 0 1.1209513607476867e-09 0 0 0 1.1209513607476867e-09" Properties=species:S:1:pos:R:3 Step=23
Ar 1.106743 1.038461 1.683500
Ar 1.319059 2.292135 5.365608
Ar 2.181327 2.529676 9.150990
Ar 2.690345 4.577149 1.994584
Ar 1.310993 6.151518 5.601407
Ar 2.534335 6.321830 9.414319
Ar 1.870457 8.356447 1.391466
Ar 2.505967 9.950462 4.683711
Ar 1.215402 9.945369 8.424382
Ar 4.809126 1.024700 1.380117
Ar 5.239098 2.103892 4.964191
Ar 6.089711 1.738787 9.097858
Ar 6.415193 4.896844 1.940580
Ar 4.927800 5.772413 5.968857
Ar 6.149619 5.617829 9.529724
Ar 6.171638 8.711268 2.857491
Ar 5.705979 9.402891 6.656804
Ar 4.883666 9.250997 10.434627
Ar 8.709799 1.571601 3.170761
Ar 9.343907 1.568226 6.998309
Ar 9.569957 2.345025 10.744787
Ar 10.244350 5.802867 1.910125
Ar 8.500557 5.021382 5.294157
Ar 9.942577 5.863885 9.165342
Ar 9.473605 9.576480 1.182234
Ar 9.729852 9.272589 5.053700
Ar 8.646873 9.505845 8.985816
27
Lattice="1.1209513607476867e-09 0 0 0 1.1209513607476867e-09 0 0 0 1.1209513607476867e-09" Properties=species:S:1:pos:R:3 Step=24
Ar 1.093928 0.974657 1.656658
Ar 1.256322 2.323141 5.351551
Ar 2.186922 2.550336 9.156773
Ar 2.754215 4.498271 2.022450
Ar 1.299951 6.192619 5.589155
Ar 2.586262 6.335537 9.402359
Ar 1.868339 8.272996 1.404840
Ar 2.516389 9.983448 4.649851
Ar 1.274437 9.967567 8.398714
Ar 4.825271 0.990273 1.378822
Ar 5.177866 2.081886 4.962338
Ar 6.093154 1.771910 9.091697
Ar 6.480536 4.833414 1.892889
Ar 4.906718 5.737961 5.975874
Ar 6.204004 5.671042 9.511070
Ar 6.168766 8.634574 2.880653
Ar 5.684536 9.381245 6.678275
Ar 4.903436 9.254413 10.466376
Ar 8.664508 1.558014 3.191833
Ar 9.332721 1.581555 7.028539
Ar 9.567448 2.391091 10.792534
Ar 10.294886 5.777297 1.933102
Ar 8.483536 5.022036 5.296553
Ar 9.992864 5.875910 9.157372
Ar 9.448572 9.566654 1.165050
Ar 9.712879 9.300909 5.055714
Ar 8.674002 9.522643 8.959650
27
Lattice="1.1209513607476867e-09 0 0 0 1.1209513607476867e-09 0 0 0 1.1209513607476867e-09" Properties=species:S:1:pos:R:3 Step=25
Ar 1.087571 0.912794 1.623295
Ar 1.198623 2.356324 5.329137
Ar 2.183903 2.569192 9.159758
Ar 2.810843 4.428769 2.047448
Ar 1.291785 6.236387 5.570924
Ar 2.638150 6.341532 9.384752
Ar 1.882671 8.205111 1.421152
Ar 2.518129 10.014325 4.619335
Ar 1.339689 9.985830 8.384395
Ar 4.852056 0.964674 1.382105
Ar 5.121545 2.059498 4.967037
Ar 6.089409 1.807581 9.088076
Ar 6.541052 4.768149 1.840170
Ar 4.885884 5.703302 5.979826
Ar 6.264369 5.730161 9.484482
Ar 6.155777 8.546306 2.904172
Ar 5.659317 9.359515 6.697321
Ar 4.925684 9.248774 10.492340
Ar 8.618979 1.547671 3.209678
Ar 9.325469 1.599041 7.062184
Ar 9.562607 2.423381 10.837572
Ar 10.331055 5.737865 1.954942
Ar 8.468268 5.024545 5.302136
Ar 10.045240 5.890428 9.152985
Ar 9.417598 9.543478 1.147676
Ar 9.695357 9.327002 5.060789
Ar 8.705708 9.545303 8.928843
27
Lattice="1.1209513607476867e-09 0 0 0 1.1209513607476867e-09 0 0 0 1.1209513607476867e-09" Properties=species:S:1:pos:R:3 Step=26
Ar 1.087734 0.853384 1.583227
Ar 1.145064 2.392051 5.297215
Ar 2.170860 2.586062 9.158481
Ar 2.857223 4.373894 2.066668
Ar 1.286572 6.281826 5.546922
Ar 2.689241 6.339826 9.363518
Ar 1.909089 8.153013 1.437617
Ar 2.511064 10.041802 4.593864
Ar 1.405342 10.000147 8.380120
Ar 4.886678 0.943663 1.387306
Ar 5.071462 2.036702 4.978519
Ar 6.078375 1.844520 9.087662
Ar 6.593192 4.704005 1.784269
Ar 4.865069 5.670290 5.981655
Ar 6.329499 5.790668 9.450693
Ar 6.135879 8.448472 2.929710
Ar 5.631536 9.338940 6.715072
Ar 4.952249 9.238667 10.514028
Ar 8.578986 1.534075 3.227273
Ar 9.326296 1.622630 7.096580
Ar 9.553956 2.442798 10.873461
Ar 10.355888 5.688547 1.973135
Ar 8.454730 5.029459 5.311417
Ar 10.100073 5.906925 9.152565
Ar 9.382771 9.504490 1.137590
Ar 9.676827 9.351245 5.065699
Ar 8.739755 9.570552 8.896927
27
Lattice="1.1209513607476867e-09 0 0 0 1.1209513607476867e-09 0 0 0 1.1209513607476867e-09" Properties=species:S:1:pos:R:3 Step=27
Ar 1.093015 0.797188 1.535231
Ar 1.095436 2.430264 5.255059
Ar 2.147253 2.599215 9.151544
Ar 2.891741 4.338343 2.076916
Ar 1.283889 6.327777 5.517934
Ar 2.741072 6.331642 9.341746
Ar 1.940733 8.113950 1.450408
Ar 2.495881 10.064609 4.576050
Ar 1.466678 10.010011 8.384083
Ar 4.925919 0.922394 1.394988
Ar 5.028389 2.013339 4.995762
Ar 6.060630 1.881874 9.090432
Ar 6.633405 4.644334 1.727348
Ar 4.844407 5.639459 5.982586
Ar 6.397215 5.848017 9.410856
Ar 6.111748 8.344283 2.958277
Ar 5.602854 9.320526 6.732130
Ar 4.984772 9.228856 10.534988
Ar 8.548613 1.513633 3.247256
Ar 9.336191 1.653116 7.129952
Ar 9.542251 2.450242 10.895723
Ar 10.375324 5.635028 1.986051
Ar 8.442984 5.037233 5.324215
Ar 10.157884 5.924514 9.156139
Ar 9.345802 9.449013 1.137692
Ar 9.656402 9.374150 5.068094
Ar 8.772914 9.595939 8.870016
27
Lattice="1.1209513607476867e-09 0 0 0 1.1209513607476867e-09 0 0 0 1.1209513607476867e-09" Properties=species:S:1:pos:R:3 Step=28
Ar 1.101322 0.745269 1.479470
Ar 1.051080 2.470166 5.203665
Ar 2.113918 2.608771 9.137495
Ar 2.915420 4.319469 2.075512
Ar 1.282860 6.372881 5.485486
Ar 2.796585 6.319011 9.322579
Ar 1.970562 8.083059 1.455754
Ar 2.473600 10.085935 4.567408
Ar 1.519767 10.014951 8.394510
Ar 4.965985 0.898226 1.408957
Ar 4.992704 1.989514 5.016356
Ar 6.037444 1.918920 9.095950
Ar 6.659601 4.592207 1.672213
Ar 4.824221 5.610254 5.983859
Ar 6.465280 5.898172 9.366584
Ar 6.085097 8.238245 2.990242
Ar 5.575219 9.304932 6.748706
Ar 5.024011 9.221658 10.558401
Ar 8.529259 1.488473 3.269301
Ar 9.352306 1.689060 7.160951
Ar 9.529455 2.445962 10.902052
Ar 10.394154 5.582159 1.993795
Ar 8.433188 5.048179 5.339475
Ar 10.218909 5.942303 9.163257
Ar 9.308309 9.378596 1.146072
Ar 9.633316 9.395620 5.067332
Ar 8.801913 9.620273 8.855257
27
Lattice="1.1209513607476867e-09 0 0 0 1.1209513607476867e-09 0 0 0 1.1209513607476867e-09" Properties=species:S:1:pos:R:3 Step=29
Ar 1.110754 0.698225 1.417732
Ar 1.014407 2.509857 5.141625
Ar 2.073192 2.615369 9.114701
Ar 2.930798 4.310788 2.060994
Ar 1.282520 6.415891 5.451559
Ar 2.858580 6.304034 9.308294
Ar 1.993450 8.058522 1.451482
Ar 2.445091 10.109405 4.566795
Ar 1.561881 10.014102 8.409977
Ar 5.003322 0.871167 1.432630
Ar 4.964337 1.965796 5.037371
Ar 6.010132 1.955013 9.104125
Ar 6.671795 4.549473 1.621516
Ar 4.804370 5.581425 5.986502
Ar 6.533177 5.938459 9.319711
Ar 6.056517 8.135516 3.025458
Ar 5.550322 9.292241 6.764996
Ar 5.069863 9.216149 10.585450
Ar 8.520401 1.466443 3.288069
Ar 9.369619 1.726732 7.187818
Ar 9.517405 2.430582 10.897404
Ar 10.413326 5.531616 1.998069
Ar 8.425619 5.062494 5.355633
Ar 10.283231 5.959712 9.173062
Ar 9.271948 9.296333 1.159270
Ar 9.607094 9.414822 5.064933
Ar 8.824399 9.643890 8.857358
27
Lattice="1.1209513607476867e-09 0 0 0 1.1209513607476867e-09 0 0 0 1.1209513607476867e-09" Properties=species:S:1:pos:R:3 Step=30
Ar 1.120323 0.656456 1.351013
Ar 0.985750 2.546740 5.069189
Ar 2.028518 2.619939 9.081088
Ar 2.940198 4.304629 2.033012
Ar 1.282271 6.455899 5.418203
Ar 2.927892 6.286973 9.300361
Ar 2.006642 8.041738 1.437660
Ar 2.411066 10.137294 4.570941
Ar 1.591679 10.006165 8.429328
Ar 5.035304 0.842437 1.465098
Ar 4.943184 1.943204 5.056506
Ar 5.979571 1.989404 9.115689
Ar 6.673059 4.516991 1.577143
Ar 4.785184 5.551862 5.991252
Ar 6.602643 5.967696 9.272129
Ar 6.025630 8.041908 3.063163
Ar 5.529080 9.281999 6.781245
Ar 5.121538 9.209294 10.615187
Ar 8.520854 1.457639 3.298987
Ar 9.383649 1.761405 7.208577
Ar 9.506736 2.406487 10.889070
Ar 10.429306 5.482111 2.000945
Ar 8.420646 5.080235 5.371238
Ar 10.350814 5.976483 9.184521
Ar 9.238324 9.205919 1.175662
Ar 9.577502 9.430602 5.064160
Ar 8.839554 9.668259 8.872467
27
Lattice="1.1209513607476867e-09 0 0 0 1.1209513607476867e-09 0 0 0 1.1209513607476867e-09" Properties=species:S:1:pos:R:3 Step=31
Ar 1.130223 0.619240 1.281489
Ar 0.963114 2.579628 4.989661
Ar 1.983794 2.623586 9.034193
Ar 2.947465 4.294794 1.992007
Ar 1.282220 6.492154 5.387131
Ar 3.003183 6.267494 9.300154
Ar 2.009129 8.033449 1.416388
Ar 2.372430 10.169220 4.576251
Ar 1.609327 9.989736 8.451249
Ar 5.060328 0.812838 1.500475
Ar 4.929419 1.922906 5.072744
Ar 5.946307 2.021095 9.131780
Ar 6.668200 4.495892 1.540910
Ar 4.766085 5.521541 5.998593
Ar 6.675999 5.985925 9.225732
Ar 5.991368 7.963471 3.101776
Ar 5.511213 9.273472 6.797869
Ar 5.177541 9.197594 10.645409
Ar 8.527451 1.468639 3.299339