27
Lattice="11.209513607476868 0 0 0 11.209513607476868 0 0 0 11.209513607476868" Properties=species:S:1:pos:R:3 Step=0
WTR 1.852430 1.772843 1.872721
WTR 1.850525 1.854583 5.573271
WTR 1.809765 1.891775 9.300769
WTR 1.826832 5.632417 1.870910
WTR 1.799039 5.608651 5.546505
WTR 1.923096 5.669143 9.342181
WTR 1.929284 9.263227 1.872550
WTR 1.789522 9.324263 5.524235
POX 9.098224 9.402471 9.174415
POX 5.409130 1.768018 2.834346
POX 5.620776 11.020359 3.795618
POX 5.747612 5.309168 10.114670
WTR 5.660012 5.622107 1.798678
POX 0.616086 7.849683 5.458862
WTR 5.677459 5.570459 9.360356
WTR 5.592214 9.327523 1.920057
WTR 5.613801 9.421649 5.613592
POX 9.368192 5.949257 9.610198
WTR 9.326614 1.779104 1.819457
WTR 9.265272 1.959005 5.690013
WTR 9.401203 1.886597 9.396509
WTR 9.276736 5.568392 1.866253
POX 3.161686 5.292091 5.817464
WTR 9.326905 5.606683 9.305352
WTR 9.295140 9.320186 1.929931
WTR 9.382494 9.323905 5.515784
WTR 9.394230 9.302325 9.356602
27
Lattice="11.209513607476868 0 0 0 11.209513607476868 0 0 0 11.209513607476868" Properties=species:S:1:pos:R:3 Step=1
WTR 0.859977 10.048688 5.618558
WTR 0.197703 9.020973 5.115776
WTR 1.564723 8.849798 2.973392
WTR 11.010158 10.770435 2.785915
WTR 9.646947 10.299656 5.584633
WTR 1.123003 5.175320 7.998878
WTR 3.074497 1.850590 0.505817
WTR 8.090821 9.659812 1.651436
POX 10.609948 8.953711 8.691296
POX 6.793400 7.424314 5.141398
POX 5.442554 9.492468 10.293996
POX 8.941798 7.879857 5.259284
WTR 2.634514 6.819793 0.788605
POX 2.025875 7.088530 7.128582
WTR 5.686675 6.150487 10.331711
WTR 3.014161 8.150611 7.337166
WTR 8.749565 7.935865 0.890006
POX 9.927048 8.138485 10.743108
WTR 8.669875 2.456722 8.262647
WTR 0.631260 5.318718 8.327608
WTR 7.884611 10.753119 10.047764
WTR 9.789466 0.851199 9.327839
POX 6.597540 7.916384 0.387413
WTR 10.010116 2.225704 5.423708
WTR 7.563319 9.595471 0.266641
WTR 6.293757 4.844464 3.753754
WTR 6.197989 6.583287 1.669292
27
Lattice="11.209513607476868 0 0 0 11.209513607476868 0 0 0 11.209513607476868" Properties=species:S:1:pos:R:3 Step=2
WTR 7.571020 5.349610 2.983528
WTR 1.548838 3.268117 9.814108
WTR 8.030071 10.896197 5.659011
WTR 5.007628 8.745509 2.405377
WTR 10.730823 2.361789 5.465555
WTR 9.013823 6.224143 6.116697
WTR 5.725442 6.288624 8.566637
WTR 1.204726 6.307405 2.539766
POX 11.061744 5.246473 0.105664
POX 6.266992 0.024447 4.764561
POX 7.569854 0.321060 10.489927
POX 8.805021 5.651140 7.863430
WTR 5.982884 7.665059 0.810047
POX 2.725749 3.930409 5.237320
WTR 1.971053 2.811495 4.147976
WTR 3.310755 0.328679 10.123650
WTR 10.857521 3.383814 3.892746
POX 7.111913 9.084105 4.513214
WTR 8.163156 2.637096 7.153873
WTR 0.704387 5.723339 10.785876
WTR 1.953784 10.195948 3.646338
WTR 10.749951 4.398812 7.964662
POX 6.380707 8.379045 11.044980
WTR 9.185486 8.810624 7.572778
WTR 1.796471 7.233071 3.936315
WTR 3.709142 6.458383 7.575953
WTR 2.347188 5.575046 7.861389
27
Lattice="11.209513607476868 0 0 0 11.209513607476868 0 0 0 11.209513607476868" Properties=species:S:1:pos:R:3 Step=3
WTR 1.406413 2.010617 4.304734
WTR 4.231840 7.859046 11.130471
WTR 5.835026 3.194169 9.661152
WTR 1.819161 1.852494 7.871742
WTR 1.513358 4.748665 6.669676
WTR 7.348115 11.147753 0.331617
WTR 2.573137 6.129479 5.636421
WTR 4.841813 10.580675 5.576249
POX 4.039571 6.583886 0.649218
POX 3.611369 9.072924 6.789954
POX 8.664002 7.788761 6.128749
POX 9.671203 7.709520 2.131499
WTR 4.278705 3.715617 6.380460
POX 10.250527 3.247796 0.580802
WTR 3.565373 7.927725 10.010471
WTR 0.863017 5.704300 6.568626
WTR 8.629059 2.245559 5.595628
POX 0.998627 10.879205 9.808097
WTR 2.217346 10.729334 4.916015
WTR 0.834307 1.456492 9.808828
WTR 10.132514 6.215657 7.530265
WTR 10.072787 0.583332 6.792045
POX 9.226077 4.998493 1.085158
WTR 0.188387 4.981094 2.190520
WTR 2.585040 7.437507 9.892831
WTR 6.607439 10.741906 10.265967
WTR 6.448344 1.158582 5.844588
27
Lattice="11.209513607476868 0 0 0 11.209513607476868 0 0 0 11.209513607476868" Properties=species:S:1:pos:R:3 Step=4
WTR 1.518182 5.741994 7.110946
WTR 2.160139 4.887897 1.843763
WTR 3.064169 5.800496 9.216869
WTR 2.142768 1.287768 0.965980
WTR 3.105501 7.873798 6.729137
WTR 6.293123 9.110680 11.071230
WTR 7.966735 1.510634 3.844637
WTR 6.945161 0.459293 2.339643
POX 6.738339 4.237757 10.022791
POX 0.414153 8.042951 7.279048
POX 0.626593 5.473463 3.676730
POX 2.509764 10.437480 7.313496
WTR 3.394296 4.678470 2.823336
POX 9.461807 2.557275 1.672945
WTR 5.716990 9.589378 5.775053
WTR 6.911125 8.771864 0.167012
WTR 5.570155 1.927837 0.819853
POX 8.483064 1.494353 6.316121
WTR 1.823976 8.181196 11.206813
WTR 7.010952 8.279621 3.934938
WTR 1.728969 4.890194 0.172463
WTR 9.011661 7.507047 2.153292
POX 4.205864 7.900914 0.973065
WTR 7.631946 5.896616 5.490425
WTR 7.973266 10.422755 0.045510
WTR 5.199069 8.717932 10.932073
WTR 2.111120 10.110491 3.321824
27
Lattice="11.209513607476868 0 0 0 11.209513607476868 0 0 0 11.209513607476868" Properties=species:S:1:pos:R:3 Step=5
WTR 2.054774 8.510896 6.740015
WTR 8.567783 5.111980 10.727548
WTR 2.500924 6.214280 5.469288
WTR 2.602733 4.452826 4.362387
WTR 9.884116 6.240619 7.682779
WTR 7.211608 1.431104 3.282210
WTR 8.449016 7.789082 7.746922
WTR 4.168070 3.504135 6.840314
POX 3.317421 4.346907 1.153575
POX 9.060335 6.301311 6.674425
POX 3.291176 7.274019 5.082864
POX 10.414523 6.726995 11.118551
WTR 2.119334 2.858916 10.374889
POX 4.869240 0.934846 9.663510
WTR 5.463081 4.071641 5.590540
WTR 3.858106 0.709604 6.607996
WTR 2.952744 6.128491 8.541728
POX 10.011125 0.777876 1.422998
WTR 0.045135 11.049606 5.345362
WTR 5.795760 8.433456 8.035476
WTR 6.595240 0.855696 3.079478
WTR 10.760601 2.291180 8.124421
POX 1.757385 6.326225 5.022469
WTR 6.307081 5.903642 10.544520
WTR 7.984742 8.820288 0.948950
WTR 3.720834 10.174454 7.652460
WTR 3.701713 6.594445 10.644674
27
Lattice="11.209513607476868 0 0 0 11.209513607476868 0 0 0 11.209513607476868" Properties=species:S:1:pos:R:3 Step=6
WTR 8.743849 1.692841 0.866628
WTR 8.567720 10.158794 0.439635
WTR 10.447115 2.436294 2.832017
WTR 4.325838 1.977693 4.222864
WTR 7.795326 11.052644 0.038218
WTR 2.894902 9.350955 10.030214
WTR 3.089148 9.988095 8.262364
WTR 2.835971 3.675150 11.062978
POX 8.126562 7.284983 2.179707
POX 0.088961 3.891032 9.951137
POX 7.288659 9.301399 5.241446
POX 6.565661 6.036178 3.805283
WTR 9.837041 3.217597 3.321896
POX 10.309047 0.214699 0.929231
WTR 8.998880 0.603991 5.116868
WTR 9.619592 9.863430 8.252484
WTR 9.742237 1.305080 1.040061
POX 4.948870 4.133951 4.884322
WTR 0.179609 4.845104 7.349569
WTR 10.965908 8.344906 2.041304
WTR 6.787009 4.552133 7.056964
WTR 10.995560 1.780553 9.191125
POX 1.082444 9.576431 0.433264
WTR 7.163343 1.018602 6.059099
WTR 6.488179 0.175729 4.956992
WTR 2.705934 10.663341 6.482734
WTR 6.199125 10.922983 7.533122
27
Lattice="11.209513607476868 0 0 0 11.209513607476868 0 0 0 11.209513607476868" Properties=species:S:1:pos:R:3 Step=7
WTR 7.659774 7.491075 1.007863
WTR 2.528490 9.921183 6.930596
WTR 9.959490 5.782725 5.588070
WTR 8.497121 2.858138 5.751728
WTR 5.902402 2.135795 3.063728
WTR 6.143925 4.380345 3.599883
WTR 0.575052 9.696012 9.200256
WTR 5.089719 0.546579 9.244375
POX 1.772048 2.718777 8.140091
POX 5.214623 1.345364 10.872107
POX 5.345226 2.268955 4.129758
POX 0.861002 3.789220 5.006877
WTR 9.328413 8.253742 11.037923
POX 1.260274 4.757457 10.321636
WTR 2.940968 1.558361 10.154457
WTR 9.384765 2.484101 10.044928
WTR 7.377485 6.368945 2.796542
POX 8.610331 8.406548 0.933022
WTR 5.525969 4.941258 4.216059
WTR 5.844032 5.936823 5.715171
WTR 9.931964 9.201344 0.142145
WTR 5.796762 2.109955 5.910664
POX 5.290102 6.645686 2.392332
WTR 7.238309 11.146202 10.201386
WTR 6.339390 9.819790 9.871660
WTR 0.166179 8.213534 6.951423
WTR 2.549518 0.540834 1.741423
27
Lattice="11.209513607476868 0 0 0 11.209513607476868 0 0 0 11.209513607476868" Properties=species:S:1:pos:R:3 Step=8
WTR 2.813574 1.826940 10.398466
WTR 9.949252 7.802913 4.167312
WTR 11.042260 9.859712 8.589323
WTR 7.386111 7.487131 8.140167
WTR 11.010472 6.018386 10.240936
WTR 2.151242 10.077200 4.084715
WTR 1.828711 4.171664 5.999275
WTR 3.890015 9.183956 0.504259
POX 9.120914 8.354210 0.924102
POX 10.252188 1.437972 7.433669
POX 5.466395 8.412104 1.098566
POX 8.340860 2.028216 2.074206
WTR 4.687494 1.241078 9.105497
POX 1.976671 3.730540 8.951374
WTR 6.903822 11.073860 2.091228
WTR 4.805412 4.110489 8.896051
WTR 10.165849 1.047781 9.012771
POX 11.187528 9.023049 2.340819
WTR 4.826895 9.046468 5.750409
WTR 9.836861 5.464248 2.869470
WTR 7.235220 1.542360 2.261271
WTR 10.253994 10.393690 1.003243
POX 2.039168 0.746025 5.283164
WTR 8.023994 5.111121 5.761025
WTR 9.055505 3.702078 5.151958
WTR 5.393599 4.032088 7.635191
WTR 7.970602 7.785059 9.414881
27
Lattice="11.209513607476868 0 0 0 11.209513607476868 0 0 0 11.209513607476868" Properties=species:S:1:pos:R:3 Step=9
WTR 3.253703 9.874453 1.895729
WTR 5.581013 8.479101 11.093518
WTR 6.729769 10.062618 7.472459
WTR 7.172897 10.335640 7.477166
WTR 7.452283 1.221939 7.187257
WTR 3.256918 6.110304 10.758303
WTR 4.637582 5.054323 5.086937
WTR 5.124019 8.825234 7.863297
POX 6.307057 5.871299 1.054201
POX 6.689147 2.583391 0.380505
POX 0.117550 0.837646 1.021075
POX 5.176002 0.858429 5.343466
WTR 0.296769 2.259177 4.923104
POX 4.211014 4.629182 9.003852
WTR 8.851916 3.270997 1.756396
WTR 10.881506 4.448902 9.213629
WTR 6.240441 0.526367 8.951174
POX 7.310758 4.678178 10.649941
WTR 7.229495 3.057450 9.013186
WTR 10.699740 7.443756 7.966726
WTR 3.981935 6.776084 7.265901
WTR 9.078941 5.589038 7.991414
POX 8.239615 6.810209 0.548443
WTR 1.821854 6.486860 4.280450
WTR 9.041552 9.799290 10.050367
WTR 6.613604 6.319779 4.823478
WTR 9.114890 10.218321 3.937214
27
Lattice="11.209513607476868 0 0 0 11.209513607476868 0 0 0 11.209513607476868" Properties=species:S:1:pos:R:3 Step=10
WTR 3.314529 3.809369 3.231131
WTR 0.776898 5.159127 10.586463
WTR 1.419668 9.942770 5.722439
WTR 0.567134 7.210195 6.833772
WTR 8.798076 10.314401 9.141180
WTR 3.063547 0.089948 8.963027
WTR 2.546278 3.375841 5.789025
WTR 5.761584 3.448783 8.336417
POX 6.211474 10.142307 4.148909
POX 9.587306 4.410509 11.139763
POX 4.324247 4.481172 5.669395
POX 0.359763 8.152165 10.992216
WTR 9.604026 4.295561 6.550307
POX 9.590689 2.167516 7.585947
WTR 8.489702 8.019053 9.867761
WTR 9.764473 1.240790 6.716355
WTR 5.478752 6.206538 3.824839
POX 2.585430 1.235475 10.879042
WTR 7.667509 10.536395 10.802165
WTR 10.597369 8.819321 7.129195
WTR 2.714514 5.062713 9.743515
WTR 5.027018 1.864738 3.843017
POX 9.191783 7.085685 5.926652
WTR 4.195097 8.722127 5.798698
WTR 3.948249 10.622850 10.642423
WTR 2.759301 9.876022 7.938052
WTR 6.146571 0.486590 7.316529
27
Lattice="11.209513607476868 0 0 0 11.209513607476868 0 0 0 11.209513607476868" Properties=species:S:1:pos:R:3 Step=11
WTR 7.876238 2.368436 10.208109
WTR 1.537130 9.065643 8.947637
WTR 0.509314 6.536987 1.902222
WTR 2.703787 1.073630 4.459961
WTR 5.086034 2.573827 10.338913
WTR 6.202754 0.882210 0.727596
WTR 7.427212 0.615801 5.976863
WTR 6.648117 3.843948 10.545543
POX 2.120433 0.591998 0.098908
POX 7.531399 2.090222 5.123673
POX 8.879710 4.246863 9.636110
POX 0.357761 1.849987 1.180909
WTR 5.557927 5.370558 8.390053
POX 0.323184 5.406275 5.955957
WTR 8.304654 2.481707 0.225692
WTR 9.568720 4.375926 5.642088
WTR 4.570092 7.896039 6.076643
POX 0.063665 7.534027 9.654286
WTR 4.686324 6.366996 8.159056
WTR 0.374456 1.475604 2.796032
WTR 2.568992 6.759248 3.546967
WTR 6.599050 8.070999 4.429353
POX 10.304032 10.538790 5.239854
WTR 3.737808 4.992814 9.750383
WTR 4.870955 6.162566 9.836459
WTR 1.753111 8.930877 6.439568
WTR 9.240838 9.987695 0.346492
27
Lattice="11.209513607476868 0 0 0 11.209513607476868 0 0 0 11.209513607476868" Properties=species:S:1:pos:R:3 Step=12
WTR 10.577217 6.924974 10.158137
WTR 5.313361 8.545920 5.067070
WTR 3.637008 10.039510 5.330273
WTR 2.869065 0.800371 4.018550
WTR 0.887606 10.478438 10.727912
WTR 2.211323 7.392191 9.709003
WTR 6.439780 1.022458 2.461799
WTR 9.301254 9.531407 6.890515
POX 1.855132 4.389991 1.437593
POX 10.671843 7.177688 4.858373
POX 9.851738 3.554821 7.895740
POX 6.116754 2.619202 7.545039
WTR 6.664411 3.078795 9.230327
POX 0.397255 2.984200 1.527258
WTR 10.859395 7.332826 6.236903
WTR 2.731729 2.803905 6.236940
WTR 1.499731 0.883702 5.151314
POX 2.282510 6.909896 0.753998
WTR 11.003052 2.175964 5.140843
WTR 4.803546 3.509344 9.549286
WTR 5.741476 9.494251 10.985994
WTR 7.248657 1.680916 5.282698
POX 0.609755 0.331049 8.626061
WTR 7.979845 6.189350 8.578403
WTR 3.337707 5.727542 8.042702
WTR 3.551725 5.446394 9.903419
WTR 9.213753 1.405550 5.500904
27
Lattice="11.209513607476868 0 0 0 11.209513607476868 0 0 0 11.209513607476868" Properties=species:S:1:pos:R:3 Step=13
WTR 4.839229 0.498650 10.742624
WTR 5.615337 8.442900 5.002524
WTR 7.381170 1.441752 1.323461
WTR 1.980270 0.992668 8.841809
WTR 7.015393 8.401070 5.419564
WTR 2.906167 10.275910 4.585694
WTR 7.426335 0.179214 0.623447
WTR 5.148389 0.750341 4.026813
POX 0.000000 0.000000 0.000000
POX 8.004456 6.473415 10.980245
POX 1.862555 4.507456 10.819814
POX 8.540002 6.375894 7.563994
WTR 4.140107 10.056384 0.975100
POX 7.629017 4.440587 4.392886
WTR 2.872774 2.544347 7.109024
WTR 6.488514 9.344250 8.773015
WTR 1.168594 0.075199 5.022041
POX 6.717407 3.580326 10.364565
WTR 9.829370 10.763182 10.391428
WTR 1.796101 4.799001 10.175742
WTR 0.878120 2.136503 8.885204
WTR 9.737104 10.901027 6.957977
POX 0.000000 0.000000 0.000000
WTR 1.377864 6.678445 9.543915
WTR 9.337099 2.115878 6.127750
WTR 4.404981 0.032033 3.089478
WTR 0.223113 9.408598 0.976072
27
Lattice="11.209513607476868 0 0 0 11.209513607476868 0 0 0 11.209513607476868" Properties=species:S:1:pos:R:3 Step=14
WTR 5.224525 3.138281 8.735063
WTR 9.358273 3.766991 9.506232
WTR 6.179926 2.787296 6.785235
WTR 9.150555 3.517130 3.496808
WTR 2.725634 7.556399 0.292720
WTR 8.083886 2.103906 8.211799
WTR 7.415794 3.619748 7.080821
WTR 6.635485 4.626077 8.295622
POX 0.000000 0.000000 0.000000
POX 0.556955 4.846062 2.620174
POX 10.922473 0.777628 5.736604
POX 7.667336 8.735736 7.825354
WTR 7.939420 11.146896 2.045618
POX 1.255899 4.370295 7.743295
WTR 4.922340 10.349288 6.468686
WTR 6.321822 3.454082 5.938483
WTR 2.894077 6.056433 5.370572
POX 5.419780 8.604802 1.878905
WTR 4.012073 6.203000 5.779870
WTR 6.728063 11.129708 9.555144
WTR 5.691136 10.578248 9.707322
WTR 8.310849 4.779932 6.938498
POX 0.000000 0.000000 0.000000
WTR 10.561050 7.775564 9.701742
WTR 7.738667 8.051934 7.670196
WTR 0.342636 10.469326 6.813335
WTR 5.537194 1.168383 7.780663
27
Lattice="11.209513607476868 0 0 0 11.209513607476868 0 0 0 11.209513607476868" Properties=species:S:1:pos:R:3 Step=15
WTR 1.618150 7.911643 4.675254
WTR 8.007466 4.084559 3.673821
WTR 9.636601 0.325830 4.964396
WTR 10.213900 7.201824 10.495073
WTR 3.739618 8.436818 2.699924
WTR 8.834683 5.125039 5.379360
WTR 7.681968 7.320393 2.844278
WTR 7.028540 6.250651 7.436585
POX 0.000000 0.000000 0.000000
POX 6.348332 0.414729 8.419882
POX 7.220502 6.910641 6.869262
POX 10.662231 4.007087 6.912176
WTR 1.816879 2.045539 5.450200
POX 7.755923 4.584504 1.849276
WTR 0.969575 10.783406 3.115967
WTR 7.577830 10.079094 7.715354
WTR 11.068460 9.213356 2.105638
POX 3.669579 4.002463 10.049973
WTR 7.720710 0.834153 3.100302
WTR 3.565866 4.688733 8.784207
WTR 8.043025 0.964616 3.364721
WTR 3.544946 8.471791 3.151544
POX 0.000000 0.000000 0.000000
WTR 0.091995 9.740574 9.552055
WTR 7.077216 8.548447 0.404113
WTR 10.279987 8.561051 1.799416
WTR 3.508892 7.060329 10.868343
27
Lattice="11.209513607476868 0 0 0 11.209513607476868 0 0 0 11.209513607476868" Properties=species:S:1:pos:R:3 Step=16
WTR 1.715693 10.044522 8.921390
WTR 2.678945 7.964416 8.652014
WTR 8.169026 0.589110 9.159031
WTR 8.669737 6.990560 6.363914
WTR 6.675701 8.424175 6.014321
WTR 8.630127 8.830735 3.130554
WTR 2.513981 6.613580 1.941531
WTR 7.929920 8.335052 0.774919
POX 0.000000 0.000000 0.000000
POX 9.831635 2.180169 2.543021
POX 0.944655 1.403120 1.829214
POX 0.874036 4.640777 8.520498
WTR 8.666525 8.341336 8.913995
POX 5.949876 5.342858 8.184983
WTR 0.073882 9.622278 4.024586
WTR 5.430469 4.617703 0.831044
WTR 0.937026 8.729487 6.822039
POX 0.062301 3.769627 9.319098
WTR 3.051096 9.048475 8.990763
WTR 7.308839 7.211505 8.949122
WTR 3.094503 10.446108 3.816840
WTR 0.591212 7.407485 5.685557
POX 0.000000 0.000000 0.000000
WTR 11.039325 3.443809 0.655246
WTR 3.533640 10.887977 9.593253
WTR 4.303820 9.739274 1.325683
WTR 4.716507 0.668329 8.492277
27
Lattice="11.209513607476868 0 0 0 11.209513607476868 0 0 0 11.209513607476868" Properties=species:S:1:pos:R:3 Step=17
WTR 4.792453 10.712009 3.187954
WTR 2.263358 4.403659 1.911417
WTR 6.789965 2.679054 5.014843
WTR 10.564101 0.002309 6.543805
WTR 8.433114 10.921492 5.593264
WTR 4.834640 1.227094 3.631583
WTR 8.866455 10.064588 0.967688
WTR 10.932476 0.877165 3.773679
POX 0.000000 0.000000 0.000000
POX 4.393537 2.830689 4.953169
POX 3.694839 7.385652 4.886093
POX 10.128992 10.003040 2.526889
WTR 9.566105 0.956271 10.995203
POX 10.612719 5.987528 1.250206
WTR 0.165666 3.842205 8.576152
WTR 9.663707 8.524074 10.976898
WTR 3.938881 2.274526 5.396177
POX 0.129656 2.601188 5.720549
WTR 4.309186 8.078299 3.830038
WTR 3.598501 0.529456 4.204822
WTR 9.495028 0.908368 4.197675
WTR 9.103619 0.534085 2.788427
POX 0.000000 0.000000 0.000000
WTR 8.633125 3.375500 8.897734
WTR 0.712200 6.191753 6.257456
WTR 1.164153 5.820766 10.879198
WTR 4.801774 2.081792 1.478522
27
Lattice="11.209513607476868 0 0 0 11.209513607476868 0 0 0 11.209513607476868" Properties=species:S:1:pos:R:3 Step=18
WTR 8.658564 5.996809 8.979149
WTR 3.250129 6.270245 4.875301
WTR 2.293057 0.386420 0.421226
WTR 10.382349 10.454592 3.496874
WTR 9.405877 2.309767 1.000386
WTR 4.578531 7.472074 7.847545
WTR 4.655110 9.375603 9.603225
WTR 8.037794 5.466960 4.921910
POX 0.000000 0.000000 0.000000
POX 5.663443 5.666216 0.457909
POX 8.509366 2.212621 1.589337
POX 3.818140 0.330883 5.603961
WTR 8.083607 10.982919 2.287481
POX 7.666710 2.552802 6.557789
WTR 10.836851 7.076719 5.864713
WTR 2.780635 6.115287 3.184208
WTR 2.636057 5.931609 9.004497
POX 8.012827 6.864925 7.313278
WTR 9.351929 3.809935 5.076759
WTR 8.787621 11.053950 4.655824
WTR 2.857132 10.221590 10.213734
WTR 3.921777 8.867408 1.933420
POX 0.000000 0.000000 0.000000
WTR 9.322143 5.937002 11.033318
WTR 0.230839 8.176841 4.001364
WTR 4.738080 10.049183 7.677645
WTR 10.384126 7.958741 0.764031
27
Lattice="11.209513607476868 0 0 0 11.209513607476868 0 0 0 11.209513607476868" Properties=species:S:1:pos:R:3 Step=19
WTR 3.346012 7.276556 4.690919
WTR 6.576046 0.172524 8.969567
WTR 7.706286 0.133869 0.755404
WTR 10.441409 3.849302 1.222393
WTR 4.445865 4.730802 9.777818
WTR 3.762736 8.488011 7.876902
WTR 1.219625 9.983859 0.788721
WTR 4.524594 9.952056 6.945521
POX 0.000000 0.000000 0.000000
POX 1.285160 6.055565 10.483285
POX 1.871541 8.849866 10.601952
POX 8.936712 9.480735 7.239597
WTR 11.082081 8.595232 9.643573
POX 10.407420 10.238175 7.316580
WTR 10.462459 7.706686 1.398336
WTR 6.396342 11.109117 6.703378
WTR 8.142103 10.535465 3.134360
POX 5.706228 3.038695 10.690617
WTR 6.034176 1.244055 6.175152
WTR 3.544573 8.990141 8.150147
WTR 2.927048 10.338918 6.440534
WTR 0.527419 5.917305 0.768298
POX 0.000000 0.000000 0.000000
WTR 4.805992 7.793581 9.384579
WTR 4.019225 7.898974 8.023953
WTR 0.109670 7.476064 0.331619
WTR 2.753896 7.821870 2.208227
27
Lattice="11.209513607476868 0 0 0 11.209513607476868 0 0 0 11.209513607476868" Properties=species:S:1:pos:R:3 Step=20
WTR 9.214569 7.275229 2.239289
WTR 6.008393 6.098231 2.288962
WTR 4.542723 0.281124 10.382251
WTR 3.660813 10.125543 7.050047
WTR 11.011613 10.475006 4.405250
WTR 4.942646 6.088364 1.561663
WTR 1.091511 2.693159 6.889829
WTR 10.741855 6.632663 2.256672
POX 0.000000 0.000000 0.000000
POX 4.680864 4.055781 10.561921
POX 8.250909 9.989980 7.222107
POX 4.751060 7.350621 5.347804
WTR 7.879776 2.319537 9.370036
POX 7.927159 0.783115 0.753544
WTR 9.656679 8.041473 2.641428
WTR 1.701795 7.671254 2.773077
WTR 0.785652 8.276475 10.176229
POX 9.961210 10.880272 6.764181
WTR 10.278264 6.016096 6.482847
WTR 8.047096 4.122112 2.972586
WTR 11.136776 9.107772 1.721027
WTR 0.412658 7.588334 6.351484
POX 0.000000 0.000000 0.000000
WTR 10.782925 2.353378 3.549949
WTR 4.880037 2.748770 10.601751
WTR 1.753330 1.527976 9.891131
WTR 3.982065 9.311894 8.672877
27
Lattice="11.209513607476868 0 0 0 11.209513607476868 0 0 0 11.209513607476868" Properties=species:S:1:pos:R:3 Step=21
WTR 6.276022 1.576334 2.056311
WTR 4.767439 11.032084 5.122863
WTR 7.977553 4.083760 0.757224
WTR 6.414383 1.330933 1.952681
WTR 5.504902 1.248993 10.907121
WTR 10.345994 4.358492 2.825282
WTR 5.388937 5.832514 6.020475
WTR 10.426369 6.233256 3.430126
POX 0.000000 0.000000 0.000000
POX 7.243469 4.107300 0.454796
POX 6.502007 7.288067 7.439084
POX 2.571590 3.228110 10.574966
WTR 2.754517 9.028488 5.060726
POX 5.526047 9.555628 7.179954
WTR 1.404127 8.400643 3.051574
WTR 10.379223 8.870551 10.027918
WTR 10.109713 2.411127 2.648885
POX 0.323449 9.090103 6.515608
WTR 9.671338 5.554953 6.215155
WTR 2.256592 5.237912 2.505052
WTR 3.934368 4.090781 3.150140
WTR 9.794031 8.714494 8.421422
POX 0.000000 0.000000 0.000000
WTR 8.717444 5.063556 10.937992
WTR 9.823410 4.230007 9.523858
WTR 4.068089 10.023473 0.706015
WTR 6.832432 1.211653 7.039115
27
Lattice="11.209513607476868 0 0 0 11.209513607476868 0 0 0 11.209513607476868" Properties=species:S:1:pos:R:3 Step=22
WTR 1.008948 3.535023 8.987577
WTR 9.293790 9.572397 1.824023
WTR 5.967528 6.884446 0.063252
WTR 0.669868 5.563598 9.248303
WTR 8.026366 2.135282 10.308024
WTR 9.170234 11.152349 3.064585
WTR 2.292752 0.639970 9.911093
WTR 5.199141 9.399756 6.177738
POX 0.000000 0.000000 0.000000
POX 10.866551 1.919190 1.529177
POX 10.545786 4.807264 10.498004
POX 7.720494 0.390597 5.136803
WTR 1.588883 5.644433 8.167319
POX 3.114473 0.422508 0.441816
WTR 4.806038 6.496445 6.934135
WTR 0.455167 7.748162 5.342513
WTR 1.549075 2.529714 8.648270
POX 7.305818 7.330392 1.275520
WTR 9.603662 7.331402 5.436448
WTR 5.398812 10.118295 4.252858
WTR 1.385944 6.956930 6.847196
WTR 2.017620 2.471165 8.643712
POX 0.000000 0.000000 0.000000
WTR 5.441598 6.682594 9.606430
WTR 9.395944 6.844711 2.875096
WTR 0.211933 5.813054 8.882029
WTR 6.097393 9.097682 2.218526
27
Lattice="11.209513607476868 0 0 0 11.209513607476868 0 0 0 11.209513607476868" Properties=species:S:1:pos:R:3 Step=23
WTR 3.394401 5.907356 3.691384
WTR 4.217856 5.586072 4.932134
WTR 1.720600 10.244969 0.155458
WTR 9.701968 1.645803 5.354209
WTR 8.317101 2.742574 5.585195
WTR 6.232356 7.487977 2.256321
WTR 5.330743 0.944322 8.027496
WTR 10.430081 4.226640 2.397196
POX 0.000000 0.000000 0.000000
POX 9.967952 1.219402 3.324243
POX 10.881510 7.565387 8.635483
POX 0.647673 0.763458 10.758094
WTR 10.314939 3.936114 6.212216
POX 4.415890 9.022532 2.348531
WTR 8.586752 5.113686 5.173893
WTR 1.423364 3.340934 7.703976
WTR 4.637091 4.556697 3.259388
POX 0.638886 2.270433 7.251729
WTR 2.465553 9.153160 0.224347
WTR 7.001599 10.056518 3.293882
WTR 8.960609 5.024101 0.969975
WTR 6.061178 0.744868 7.998131
POX 0.000000 0.000000 0.000000
WTR 2.206228 4.969620 3.573857
WTR 6.487906 5.549945 10.458406
WTR 0.794861 5.541930 3.069866
WTR 11.190648 10.688552 9.450837
27
Lattice="11.209513607476868 0 0 0 11.209513607476868 0 0 0 11.209513607476868" Properties=species:S:1:pos:R:3 Step=24
WTR 8.130307 2.970041 3.940532
WTR 5.785492 11.093229 7.459780
WTR 0.327926 6.830811 7.737478
WTR 3.578252 7.180540 3.528215
WTR 6.161417 2.301295 1.300975
WTR 0.729513 6.842215 8.715683
WTR 7.083438 2.007283 1.385325
WTR 0.723410 2.442712 10.271454
POX 0.000000 0.000000 0.000000
POX 8.162702 3.670675 9.085068
POX 10.082211 5.762872 9.845285
POX 3.962879 3.812127 1.272219
WTR 0.855243 6.718499 8.296670
POX 2.999823 5.409433 6.860859
WTR 1.068338 1.733809 1.774602
WTR 0.440058 4.191704 11.091397
WTR 1.701754 4.873000 9.392146
POX 8.212000 7.144733 10.314558
WTR 5.287191 5.498308 0.382623
WTR 7.967942 2.072999 8.967276
WTR 1.150985 1.823497 10.174573
WTR 4.369606 8.253651 4.179112
POX 0.000000 0.000000 0.000000
WTR 5.118733 9.085954 6.092899
WTR 1.496039 1.476793 7.519553
WTR 5.905905 5.686978 9.171559
WTR 2.077104 3.277005 0.045028
27
Lattice="11.209513607476868 0 0 0 11.209513607476868 0 0 0 11.209513607476868" Properties=species:S:1:pos:R:3 Step=25
WTR 2.500827 4.858839 7.143542
WTR 7.600910 8.588276 9.947500
WTR 3.231996 7.702796 3.551985
WTR 1.337685 0.230437 4.842909
WTR 8.086418 1.896666 1.125078
WTR 5.647550 5.762319 6.443131
WTR 6.269731 0.517097 7.685378
WTR 5.871623 10.556569 4.217282
POX 0.000000 0.000000 0.000000
POX 6.755293 7.596155 10.202536
POX 5.795230 4.478499 8.213633
POX 10.262184 8.748523 3.204286
WTR 0.416258 5.317713 4.676359
POX 8.370206 10.109527 2.655966
WTR 0.405898 8.935841 3.647303
WTR 4.609109 5.138887 7.785355
WTR 9.322748 0.741825 6.222466
POX 8.342311 8.345313 5.834017
WTR 8.144535 3.227281 2.039957
WTR 8.787099 4.009791 4.670860
WTR 4.141979 2.608872 6.379395
WTR 2.918957 4.723908 4.741883
POX 0.000000 0.000000 0.000000
WTR 8.004786 7.835152 9.061354
WTR 0.754881 2.476450 7.606547
WTR 5.615626 6.135592 9.342169
WTR 6.479942 10.320594 6.559493
27
Lattice="11.209513607476868 0 0 0 11.209513607476868 0 0 0 11.209513607476868" Properties=species:S:1:pos:R:3 Step=26
WTR 10.516917 5.149244 3.432802
WTR 2.252665 0.143004 0.863252
WTR 3.032556 7.734079 3.373562
WTR 9.400917 5.357947 4.643527
WTR 1.376204 0.648363 6.840939
WTR 0.832921 7.352717 6.005468
WTR 3.430570 6.350266 5.710771
WTR 6.151534 4.770822 3.088179
POX 0.000000 0.000000 0.000000
POX 0.125851 3.102617 10.376375
POX 1.482008 8.271431 2.442585
POX 7.518742 5.261287 2.650395
WTR 7.623797 9.823072 4.648513
POX 6.819305 5.925574 9.920322
WTR 6.688091 11.004363 10.804582
WTR 3.512820 4.798399 7.124362
WTR 10.903567 3.954222 0.536135
POX 10.804152 7.697587 9.436215
WTR 6.804834 5.156610 3.523729
WTR 9.449930 6.387378 3.266636
WTR 3.609112 10.298528 2.561954
WTR 8.279907 8.046153 2.641569
POX 0.000000 0.000000 0.000000
WTR 10.334197 7.802580 5.856792
WTR 4.408654 2.697640 11.092536
WTR 3.185870 3.154242 1.727725
WTR 8.694755 9.035354 7.351268
27
Lattice="11.209513607476868 0 0 0 11.209513607476868 0 0 0 11.209513607476868" Properties=species:S:1:pos:R:3 Step=27
WTR 6.757298 4.818185 4.433361
WTR 2.828572 0.000000 7.828833
WTR 6.661748 10.318067 9.259984
WTR 4.477773 5.385562 6.310538
WTR 4.788094 4.717295 11.086982
WTR 3.882223 9.915884 3.592183
WTR 4.395342 4.943959 4.736539
WTR 0.008311 2.712136 9.890423
POX 0.000000 0.000000 0.000000
POX 3.077850 3.699125 5.873257
POX 2.489673 3.219687 6.183088
POX 3.056075 7.486300 1.456794
WTR 7.722450 6.665435 3.680861
POX 8.623329 3.495906 6.050905
WTR 9.066160 3.730345 5.196026
WTR 0.944416 2.495536 8.095955
WTR 8.712004 2.223940 10.836759
POX 3.037539 6.403154 10.117107
WTR 5.033192 4.833330 9.161404
WTR 5.530709 5.054846 1.406311
WTR 6.688032 4.554194 10.471648
WTR 7.060779 9.514761 6.578310
POX 0.000000 0.000000 0.000000
WTR 8.847250 8.107506 5.036645
WTR 7.585048 5.474394 1.502518
WTR 0.047034 10.271313 1.856229
WTR 8.038046 5.961189 9.421434
27
Lattice="11.209513607476868 0 0 0 11.209513607476868 0 0 0 11.209513607476868" Properties=species:S:1:pos:R:3 Step=28
WTR 10.758740 9.234540 10.844299
WTR 2.695195 4.196167 10.249319
WTR 2.123903 9.302949 4.513411
WTR 6.292416 7.121574 2.617482
WTR 8.363475 5.807564 0.227523
WTR 6.121003 4.713676 9.484395
WTR 5.787912 0.617004 9.592868
WTR 8.936071 0.302319 2.090126
POX 0.000000 0.000000 0.000000
POX 7.051194 8.556458 6.646423
POX 8.443015 9.311612 6.854187
POX 1.161437 8.368209 1.808742
WTR 8.807177 9.372486 5.843472
POX 6.728211 0.061107 5.096581
WTR 10.442039 10.291183 7.586884
WTR 0.292855 8.942939 3.717746
WTR 7.066235 5.932727 10.279548
POX 6.544454 6.186547 6.525687
WTR 0.201164 4.420862 6.294487
WTR 5.063515 7.891471 7.752078
WTR 1.480477 9.872242 3.857922
WTR 6.368302 10.928289 4.714407
POX 0.000000 0.000000 0.000000
WTR 0.843597 6.176665 2.322745
WTR 10.094075 7.479934 10.332321
WTR 8.462271 10.788986 3.033436
WTR 9.039966 6.824145 3.816225
27
Lattice="11.209513607476868 0 0 0 11.209513607476868 0 0 0 11.209513607476868" Properties=species:S:1:pos:R:3 Step=29
WTR 3.449946 9.948300 0.987925
WTR 5.331451 10.650980 6.845890
WTR 5.668498 4.565504 5.429141
WTR 8.862510 5.777154 7.582930
WTR 6.166956 1.242255 9.492235
WTR 7.273957 0.892606 5.162567
WTR 6.222945 0.381749 6.291303
WTR 8.578168 2.918396 8.909745
POX 0.000000 0.000000 0.000000
POX 4.482775 0.955383 3.555876
POX 5.688401 8.641439 8.367301
POX 10.689251 7.002939 5.144495
WTR 5.602035 9.926396 1.543207
POX 4.530884 5.661292 6.063636
WTR 3.459747 10.934814 8.745065
WTR 3.065436 7.680304 3.019980
WTR 7.721381 4.485820 3.447530
POX 10.483842 5.859185 6.947624
WTR 0.425432 3.870193 7.383286
WTR 2.224536 4.637591 7.652694
WTR 0.831469 5.516515 3.242237
WTR 2.419194 11.189632 6.904936
POX 0.000000 0.000000 0.000000
WTR 0.560709 4.507037 6.013434
WTR 0.936710 3.141027 2.127539
WTR 8.196446 0.317158 7.655513
WTR 10.402903 7.377249 0.388230
27
Lattice="11.209513607476868 0 0 0 11.209513607476868 0 0 0 11.209513607476868" Properties=species:S:1:pos:R:3 Step=30
WTR 9.752999 1.563338 0.579288
WTR 10.886487 4.749209 0.555152
WTR 5.035552 8.387176 9.142585
WTR 3.387105 8.408117 3.646777
WTR 1.171482 4.386581 6.115367
WTR 6.267997 0.002014 6.415255
WTR 6.822071 1.459643 9.922482
WTR 6.401256 6.752067 6.860858
POX 0.000000 0.000000 0.000000
POX 0.046776 10.396363 7.331638
POX 2.398047 1.806574 10.258589
POX 0.593882 3.221198 0.102879
WTR 2.724952 5.168422 10.393171
POX 0.241598 9.324495 6.774192
WTR 2.283702 0.282886 8.593999
WTR 1.078803 8.483619 10.173510
WTR 1.881245 4.473106 6.056824
POX 7.520053 10.389905 8.828140
WTR 1.279646 11.115605 1.420066
WTR 2.442992 3.610788 6.957255
WTR 1.941643 6.214336 2.258676
WTR 0.294503 2.841529 5.638929
POX 0.000000 0.000000 0.000000
WTR 2.669497 10.936079 2.157244
WTR 7.655435 6.164624 3.144761
WTR 3.538632 4.395046 8.811913
WTR 10.313901 7.286662 10.821866
27