27
Lattice="9.308797283393945 0 0 0 9.308797283393945 0 0 0 9.308797283393945" Properties=species:S:1:pos:R:3 Step=0
WTR 1.550905 1.552725 1.545344
WTR 1.556429 1.548252 4.652633
WTR 1.554140 1.548044 7.753623
WTR 1.549784 4.657283 1.557925
WTR 1.552403 4.649832 4.657705
WTR 1.549167 4.655733 7.763686
WTR 1.547861 7.758814 1.546809
WTR 1.551172 7.760416 4.648439
WTR 1.549209 7.756691 7.752154
WTR 4.650856 1.547802 1.551331
WTR 4.654572 1.557383 4.649918
WTR 4.655644 1.554643 7.764153
WTR 4.658517 4.650103 1.551881
WTR 4.658750 4.653727 4.659984
WTR 4.650879 4.659753 7.761072
WTR 4.651914 7.764588 1.552338
WTR 4.650871 7.759210 4.659931
WTR 4.650414 7.754129 7.756828
WTR 7.759981 1.558606 1.549046
WTR 7.759792 1.553639 4.648428
WTR 7.751718 1.550900 7.757149
WTR 7.759096 4.649252 1.552030
WTR 7.755350 4.650105 4.656899
WTR 7.761828 4.652469 7.762080
WTR 7.755864 7.759142 1.545598
WTR 7.761454 7.753041 4.654617
WTR 7.760192 7.752482 7.757161
27
Lattice="9.308797283393945 0 0 0 9.308797283393945 0 0 0 9.308797283393945" Properties=species:S:1:pos:R:3 Step=1
WTR 1.545175 1.565744 1.483043
WTR 1.606823 1.515610 4.634208
WTR 1.581007 1.513426 7.715608
WTR 1.533073 4.686681 1.623895
WTR 1.562016 4.603550 4.691953
WTR 1.525975 4.669020 7.828638
WTR 1.511147 7.774046 1.498989
WTR 1.548245 7.791213 4.587502
WTR 1.526326 7.750080 7.699098
WTR 4.615077 1.510924 1.550150
WTR 4.656764 1.617371 4.604839
WTR 4.668060 1.586980 7.833029
WTR 4.700265 4.606677 1.556580
WTR 4.702739 4.647424 4.716798
WTR 4.615322 4.713917 7.799233
WTR 4.626462 7.837585 1.561461
WTR 4.615328 7.778544 4.715980
WTR 4.610089 7.722243 7.752142
WTR 7.786584 1.630627 1.524199
WTR 7.785033 1.575126 4.587793
WTR 7.695081 1.544757 7.754824
WTR 7.777118 4.597772 1.558173
WTR 7.735586 4.606555 4.682511
WTR 7.807022 4.632614 7.810311
WTR 7.740628 7.777612 1.486187
WTR 7.803008 7.709435 4.656520
WTR 7.788813 7.703231 7.755101
27
Lattice="9.308797283393945 0 0 0 9.308797283393945 0 0 0 9.308797283393945" Properties=species:S:1:pos:R:3 Step=2
WTR 1.539302 1.579976 1.420133
WTR 1.657053 1.483242 4.613369
WTR 1.606658 1.479512 7.675870
WTR 1.518191 4.716568 1.691643
WTR 1.572080 4.557634 4.729476
WTR 1.503922 4.681069 7.895579
WTR 1.474021 7.790092 1.448576
WTR 1.545667 7.819305 4.524527
WTR 1.503774 7.742900 7.643637
WTR 4.580218 1.476518 1.550131
WTR 4.661185 1.676645 4.561556
WTR 4.678998 1.619878 7.899945
WTR 4.741612 4.563902 1.563634
WTR 4.745474 4.643923 4.774164
WTR 4.580524 4.766507 7.838205
WTR 4.599983 7.906561 1.571824
WTR 4.581074 7.799086 4.771112
WTR 4.570404 7.693854 7.749839
WTR 7.811651 1.699137 1.497887
WTR 7.811484 1.593563 4.527215
WTR 7.640433 1.536691 7.750185
WTR 7.795564 4.551142 1.566497
WTR 7.717809 4.563550 4.709246
WTR 7.849714 4.611439 7.858405
WTR 7.723711 7.796541 1.427880
WTR 7.843018 7.665571 4.656991
WTR 7.815238 7.653958 7.751236
27
Lattice="9.308797283393945 0 0 0 9.308797283393945 0 0 0 9.308797283393945" Properties=species:S:1:pos:R:3 Step=3
WTR 1.533157 1.596774 1.355436
WTR 1.707303 1.451638 4.587799
WTR 1.630744 1.446633 7.632552
WTR 1.506569 4.747726 1.763333
WTR 1.583069 4.511655 4.773643
WTR 1.484631 4.691074 7.967005
WTR 1.435887 7.807742 1.392666
WTR 1.543847 7.842268 4.456944
WTR 1.481965 7.734416 7.582897
WTR 4.546475 1.448744 1.552840
WTR 4.670122 1.734825 4.520656
WTR 4.686474 1.654636 7.963827
WTR 4.782656 4.521233 1.575122
WTR 4.785657 4.646287 4.833512
WTR 4.546463 4.815323 7.879203
WTR 4.571375 7.966691 1.584517
WTR 4.548686 7.822161 4.824531
WTR 4.531346 7.672903 7.752662
WTR 7.834115 1.758655 1.468109
WTR 7.840543 1.606006 4.466096
WTR 7.589407 1.524926 7.741118
WTR 7.814933 4.516144 1.579467
WTR 7.704228 4.521650 4.738478
WTR 7.887630 4.587323 7.906405
WTR 7.703288 7.816718 1.371456
WTR 7.880557 7.620547 4.654979
WTR 7.837636 7.604065 7.743509
27
Lattice="9.308797283393945 0 0 0 9.308797283393945 0 0 0 9.308797283393945" Properties=species:S:1:pos:R:3 Step=4
WTR 1.526731 1.617503 1.288326
WTR 1.757276 1.422076 4.555355
WTR 1.652975 1.415469 7.584210
WTR 1.499794 4.780803 1.840502
WTR 1.595354 4.465415 4.827586
WTR 1.470637 4.698352 8.044919
WTR 1.396580 7.827521 1.328684
WTR 1.543303 7.857015 4.382528
WTR 1.461782 7.723753 7.514271
WTR 4.514063 1.434221 1.560305
WTR 4.686040 1.790878 4.482937
WTR 4.687826 1.692690 8.022703
WTR 4.823123 4.478278 1.592976
WTR 4.821051 4.658102 4.896093
WTR 4.513297 4.856509 7.923307
WTR 4.539797 8.010174 1.600551
WTR 4.518899 7.849009 4.874481
WTR 4.493171 7.664701 7.763876
WTR 7.852650 1.800284 1.432495
WTR 7.873444 1.609012 4.404317
WTR 7.544560 1.507702 7.725425
WTR 7.835563 4.502816 1.600087
WTR 7.697762 4.482034 4.771477
WTR 7.917511 4.558540 7.953632
WTR 7.677511 7.838943 1.318545
WTR 7.914320 7.573704 4.649544
WTR 7.853747 7.553258 7.729632
27
Lattice="9.308797283393945 0 0 0 9.308797283393945 0 0 0 9.308797283393945" Properties=species:S:1:pos:R:3 Step=5
WTR 1.520309 1.642946 1.220267
WTR 1.805305 1.396870 4.514982
WTR 1.672523 1.387623 7.531058
WTR 1.499654 4.815568 1.922280
WTR 1.608897 4.420073 4.892608
WTR 1.464881 4.702346 8.128894
WTR 1.357195 7.849154 1.256072
WTR 1.544574 7.859969 4.301255
WTR 1.444748 7.710153 7.437219
WTR 4.483893 1.439415 1.574309
WTR 4.710904 1.842403 4.450577
WTR 4.680538 1.734500 8.072610
WTR 4.861500 4.436223 1.618347
WTR 4.848265 4.682450 4.961335
WTR 4.482269 4.885003 7.970416
WTR 4.505388 8.027827 1.620486
WTR 4.493189 7.880075 4.917618
WTR 4.457266 7.674749 7.786333
WTR 7.865267 1.815258 1.389442
WTR 7.910379 1.599367 4.343606
WTR 7.509679 1.483810 7.701312
WTR 7.857231 4.520331 1.631022
WTR 7.701489 4.446703 4.808523
WTR 7.935115 4.524076 7.997850
WTR 7.645337 7.863388 1.272362
WTR 7.942071 7.525848 4.639970
WTR 7.860895 7.502634 7.708008
27
Lattice="9.308797283393945 0 0 0 9.308797283393945 0 0 0 9.308797283393945" Properties=species:S:1:pos:R:3 Step=6
WTR 1.514500 1.672615 1.155302
WTR 1.848436 1.378487 4.467728
WTR 1.687999 1.365352 7.475784
WTR 1.507504 4.850510 2.004502
WTR 1.623057 4.378417 4.966522
WTR 1.468768 4.702888 8.214866
WTR 1.320221 7.871251 1.177684
WTR 1.547976 7.848794 4.216619
WTR 1.432489 7.693382 7.354720
WTR 4.457581 1.464225 1.594972
WTR 4.744984 1.886264 4.427268
WTR 4.664069 1.778540 8.108525
WTR 4.895118 4.398495 1.650709
WTR 4.864195 4.719827 5.025854
WTR 4.455869 4.897605 8.018509
WTR 4.469678 8.015663 1.643908
WTR 4.473510 7.914321 4.950058
WTR 4.426163 7.705098 7.820615
WTR 7.869784 1.803120 1.339925
WTR 7.949769 1.576058 4.287799
WTR 7.488150 1.453439 7.668438
WTR 7.878945 4.568344 1.672464
WTR 7.716808 4.417622 4.848161
WTR 7.937256 4.484608 8.035713
WTR 7.607567 7.889054 1.236825
WTR 7.961213 7.479798 4.626108
WTR 7.857155 7.454988 7.679184
27
Lattice="9.308797283393945 0 0 0 9.308797283393945 0 0 0 9.308797283393945" Properties=species:S:1:pos:R:3 Step=7
WTR 1.509822 1.705353 1.097143
WTR 1.884664 1.367626 4.415627
WTR 1.698365 1.349981 7.421558
WTR 1.523645 4.884048 2.082891
WTR 1.637093 4.342851 5.045481
WTR 1.480453 4.700406 8.298157
WTR 1.287732 7.892231 1.097431
WTR 1.553482 7.824035 4.132900
WTR 1.425535 7.673561 7.270840
WTR 4.436041 1.499615 1.620186
WTR 4.787044 1.921185 4.416483
WTR 4.640633 1.822294 8.127795
WTR 4.922184 4.369103 1.688430
WTR 4.868475 4.767799 5.085731
WTR 4.436355 4.896290 8.065186
WTR 4.434327 7.978906 1.669952
WTR 4.460885 7.950134 4.970329
WTR 4.401742 7.752433 7.864605
WTR 7.865134 1.773408 1.287090
WTR 7.989461 1.541073 4.240105
WTR 7.480220 1.417813 7.627757
WTR 7.899640 4.636333 1.721653
WTR 7.742199 4.394847 4.888348
WTR 7.924276 4.441823 8.065434
WTR 7.566153 7.914427 1.213686
WTR 7.970571 7.438468 4.608221
WTR 7.842633 7.412722 7.645745
27
Lattice="9.308797283393945 0 0 0 9.308797283393945 0 0 0 9.308797283393945" Properties=species:S:1:pos:R:3 Step=8
WTR 1.506331 1.740420 1.046972
WTR 1.914180 1.362967 4.359862
WTR 1.703310 1.341265 7.369893
WTR 1.547695 4.915573 2.155905
WTR 1.650714 4.313997 5.126931
WTR 1.495855 4.695599 8.376541
WTR 1.260142 7.911285 1.017365
WTR 1.560911 7.788232 4.052217
WTR 1.423194 7.650708 7.187758
WTR 4.418742 1.533729 1.646702
WTR 4.835752 1.948468 4.420332
WTR 4.613672 1.863678 8.131235
WTR 4.942907 4.351123 1.730269
WTR 4.863436 4.823086 5.138793
WTR 4.424848 4.886868 8.109369
WTR 4.399924 7.926584 1.698263
WTR 4.454973 7.986654 4.980045
WTR 4.384203 7.811075 7.915125
WTR 7.851615 1.737419 1.233996
WTR 8.028222 1.497576 4.201241
WTR 7.483256 1.378000 7.580240
WTR 7.918820 4.713037 1.774972
WTR 7.774473 4.376418 4.927896
WTR 7.899253 4.397084 8.088006
WTR 7.522672 7.938332 1.201829
WTR 7.970744 7.403229 4.586376
WTR 7.818920 7.376358 7.610631
27
Lattice="9.308797283393945 0 0 0 9.308797283393945 0 0 0 9.308797283393945" Properties=species:S:1:pos:R:3 Step=9
WTR 1.503639 1.777529 1.004297
WTR 1.938472 1.362478 4.300739
WTR 1.702836 1.338091 7.320913
WTR 1.579067 4.944989 2.223897
WTR 1.664030 4.291300 5.209758
WTR 1.510648 4.689132 8.449693
WTR 1.236801 7.928283 0.937908
WTR 1.570058 7.744463 3.975017
WTR 1.424359 7.624740 7.106050
WTR 4.404470 1.557498 1.671466
WTR 4.890066 1.970384 4.439561
WTR 4.586371 1.901005 8.121458
WTR 4.958621 4.346558 1.775705
WTR 4.852283 4.882890 5.184267
WTR 4.421724 4.875742 8.151083
WTR 4.366255 7.865797 1.729052
WTR 4.454790 8.023813 4.982171
WTR 4.372689 7.876094 7.969031
WTR 7.830266 1.702921 1.182716
WTR 8.065663 1.448354 4.170304
WTR 7.493904 1.334642 7.526472
WTR 7.936479 4.791544 1.829408
WTR 7.810363 4.359814 4.966380
WTR 7.865779 4.351294 8.105931
WTR 7.478050 7.959872 1.198910
WTR 7.963104 7.374323 4.560345
WTR 7.787977 7.345213 7.576232
27
Lattice="9.308797283393945 0 0 0 9.308797283393945 0 0 0 9.308797283393945" Properties=species:S:1:pos:R:3 Step=10
WTR 1.501061 1.816414 0.968164
WTR 1.959374 1.364390 4.238455
WTR 1.696984 1.339092 7.274248
WTR 1.617011 4.971918 2.287531
WTR 1.677327 4.273811 5.293303
WTR 1.521445 4.681629 8.517834
WTR 1.216775 7.943409 0.859037
WTR 1.580648 7.695910 3.901454
WTR 1.428042 7.595705 7.025906
WTR 4.392270 1.566196 1.692580
WTR 4.948861 1.988948 4.473428
WTR 4.561191 1.932658 8.101423
WTR 4.970713 4.355946 1.824557
WTR 4.837926 4.944995 5.221951
WTR 4.426936 4.868293 8.190762
WTR 4.332892 7.800687 1.762640
WTR 4.459246 8.061901 4.979662
WTR 4.366002 7.944055 8.023498
WTR 7.802435 1.674370 1.134498
WTR 8.101681 1.395540 4.145872
WTR 7.509315 1.288289 7.466996
WTR 7.952911 4.868448 1.882752
WTR 7.847160 4.342964 5.003566
WTR 7.826864 4.305208 8.121887
WTR 7.432901 7.978192 1.202575
WTR 7.949118 7.351543 4.529898
WTR 7.751670 7.318253 7.544288
27
Lattice="9.308797283393945 0 0 0 9.308797283393945 0 0 0 9.308797283393945" Properties=species:S:1:pos:R:3 Step=11
WTR 1.497806 1.856607 0.937617
WTR 1.978652 1.367535 4.173485
WTR 1.685826 1.342887 7.229447
WTR 1.660630 4.995158 2.347075
WTR 1.690969 4.260501 5.376891
WTR 1.526247 4.673787 8.581298
WTR 1.199176 7.956969 0.780797
WTR 1.592259 7.646016 3.831922
WTR 1.433514 7.563857 6.947574
WTR 4.381934 1.559138 1.709653
WTR 5.010761 2.005638 4.519750
WTR 4.539784 1.957295 8.073785
WTR 4.980111 4.377843 1.876708
WTR 4.822599 5.007680 5.251975
WTR 4.439967 4.868443 8.228961
WTR 4.299466 7.733324 1.799083
WTR 4.467321 8.101344 4.974950
WTR 4.362924 8.012770 8.076262
WTR 7.769540 1.654199 1.089926
WTR 8.136238 1.340687 4.126431
WTR 7.527413 1.239575 7.402558
WTR 7.968654 4.942142 1.933524
WTR 7.882866 4.324532 5.039183
WTR 7.784706 4.259472 8.138118
WTR 7.387655 7.992541 1.210835
WTR 7.930121 7.334431 4.495079
WTR 7.711624 7.294394 7.515877
27
Lattice="9.308797283393945 0 0 0 9.308797283393945 0 0 0 9.308797283393945" Properties=species:S:1:pos:R:3 Step=12
WTR 1.493150 1.897405 0.911793
WTR 1.997837 1.371318 4.106593
WTR 1.669506 1.348177 7.186074
WTR 1.709036 5.012276 2.402483
WTR 1.705371 4.250392 5.459881
WTR 1.524404 4.666488 8.640505
WTR 1.183240 7.969327 0.703251
WTR 1.604225 7.598824 3.767187
WTR 1.440273 7.529559 6.871020
WTR 4.373951 1.538419 1.723411
WTR 5.074347 2.021518 4.575552
WTR 4.523031 1.974376 8.040648
WTR 4.987278 4.409111 1.932044
WTR 4.807817 5.069714 5.274797
WTR 4.459803 4.878513 8.266305
WTR 4.265739 7.664604 1.837995
WTR 4.478127 8.142676 4.969849
WTR 4.362368 8.080927 8.125889
WTR 7.732847 1.643560 1.048995
WTR 8.169370 1.284842 4.110458
WTR 7.546804 1.189198 7.334104
WTR 7.984451 5.011830 1.980873
WTR 7.916201 4.303861 5.072949
WTR 7.740763 4.214497 8.156245
WTR 7.342508 8.002523 1.222101
WTR 7.907212 7.322302 4.456332
WTR 7.669103 7.272529 7.491429
27
Lattice="9.308797283393945 0 0 0 9.308797283393945 0 0 0 9.308797283393945" Properties=species:S:1:pos:R:3 Step=13
WTR 1.486565 1.937906 0.889930
WTR 2.018150 1.375580 4.038636
WTR 1.648232 1.353787 7.143675
WTR 1.761601 5.019313 2.452913
WTR 1.721001 4.242657 5.541901
WTR 1.516244 4.660881 8.695656
WTR 1.168316 7.980868 0.626223
WTR 1.615505 7.559270 3.708698
WTR 1.447992 7.493128 6.796325
WTR 4.369127 1.507185 1.734947
WTR 5.138538 2.037441 4.637976
WTR 4.511152 1.984578 8.003518
WTR 4.992539 4.445940 1.990533
WTR 4.794475 5.130411 5.291200
WTR 4.485091 4.899301 8.303494
WTR 4.231636 7.594821 1.878551
WTR 4.490973 8.186582 4.965617
WTR 4.363447 8.147813 8.171911
WTR 7.693274 1.642631 1.011235
WTR 8.201280 1.228568 4.096401
WTR 7.566622 1.137779 7.262608
WTR 8.001201 5.077062 2.024429
WTR 7.946537 4.280755 5.104684
WTR 7.695879 4.170367 8.177289
WTR 7.297323 8.008315 1.235098
WTR 7.881162 7.314317 4.414497
WTR 7.624901 7.251510 7.470816
27
Lattice="9.308797283393945 0 0 0 9.308797283393945 0 0 0 9.308797283393945" Properties=species:S:1:pos:R:3 Step=14
WTR 1.477761 1.976910 0.871192
WTR 2.040430 1.380448 3.970409
WTR 1.622277 1.358641 7.101829
WTR 1.818010 5.011092 2.497279
WTR 1.738361 4.236694 5.622790
WTR 1.502562 4.658475 8.747014
WTR 1.153872 7.991954 0.549524
WTR 1.624493 7.532990 3.658073
WTR 1.456449 7.454843 6.723626
WTR 4.368257 1.468328 1.745104
WTR 5.202703 2.054182 4.704692
WTR 4.503927 1.989803 7.963485
WTR 4.996448 4.484597 2.052193
WTR 4.783026 5.189488 5.302226
WTR 4.514314 4.930422 8.341202
WTR 4.197377 7.524267 1.919496
WTR 4.505365 8.233832 4.963081
WTR 4.365488 8.212895 8.214619
WTR 7.651384 1.650811 0.976022
WTR 8.232332 1.172159 4.082664
WTR 7.586309 1.085847 7.189085
WTR 8.019876 5.137284 2.063973
WTR 7.973699 4.255280 5.134320
WTR 7.650551 4.126971 8.201702
WTR 7.251689 8.010714 1.248710
WTR 7.852405 7.309660 4.370882
WTR 7.579398 7.230176 7.453572
27
Lattice="9.308797283393945 0 0 0 9.308797283393945 0 0 0 9.308797283393945" Properties=species:S:1:pos:R:3 Step=15
WTR 1.466680 2.012737 0.854920
WTR 2.065041 1.386234 3.903077
WTR 1.592065 1.361697 7.060195
WTR 1.877909 4.982972 2.535328
WTR 1.757922 4.232107 5.702276
WTR 1.484248 4.661211 8.794594
WTR 1.139519 8.002887 0.473147
WTR 1.628933 7.524787 3.616214
WTR 1.465454 7.415065 6.653210
WTR 4.372004 1.424047 1.754180
WTR 5.266477 2.072476 4.773672
WTR 4.500871 1.992838 7.921556
WTR 5.000110 4.521450 2.116901
WTR 4.773677 5.246797 5.308993
WTR 4.545841 4.970768 8.380023
WTR 4.163650 7.453896 1.959115
WTR 4.520941 8.285060 4.962742
WTR 4.367989 8.275349 8.254679
WTR 7.607583 1.666807 0.942915
WTR 8.262962 1.115991 4.067501
WTR 7.605394 1.033959 7.114858
WTR 8.041458 5.191380 2.099123
WTR 7.997749 4.227693 5.161823
WTR 7.605276 4.084330 8.229304
WTR 7.205112 8.011038 1.261798
WTR 7.821116 7.307729 4.327467
WTR 7.532783 7.207458 7.439154
27
Lattice="9.308797283393945 0 0 0 9.308797283393945 0 0 0 9.308797283393945" Properties=species:S:1:pos:R:3 Step=16
WTR 1.453419 2.043280 0.840896
WTR 2.091871 1.393368 3.838312
WTR 1.558203 1.361906 7.018777
WTR 1.940447 4.933484 2.568452
WTR 1.780114 4.228645 5.779553
WTR 1.462047 4.671379 8.838046
WTR 1.124964 8.013922 0.397178
WTR 1.626231 7.536160 3.582293
WTR 1.474816 7.374269 6.585603
WTR 4.380924 1.375838 1.761925
WTR 5.329699 2.093078 4.842872
WTR 4.501280 1.996895 7.878876
WTR 5.005457 4.552713 2.184333
WTR 4.766484 5.302283 5.312699
WTR 4.577998 5.019009 8.420257
WTR 4.131521 7.385618 1.995528
WTR 4.537400 8.340648 4.964803
WTR 4.370569 8.333967 8.293028
WTR 7.562236 1.688649 0.911952
WTR 8.293695 1.060679 4.049087
WTR 7.623407 0.982628 7.041595
WTR 8.066939 5.237629 2.129077
WTR 8.018922 4.198362 5.187277
WTR 7.560689 4.042828 8.259231
WTR 7.157078 8.010885 1.273119
WTR 7.787220 7.308228 4.286936
WTR 7.485134 7.182412 7.427057
27
Lattice="9.308797283393945 0 0 0 9.308797283393945 0 0 0 9.308797283393945" Properties=species:S:1:pos:R:3 Step=17
WTR 1.438105 2.066366 0.828769
WTR 2.120444 1.402384 3.778006
WTR 1.521425 1.358233 6.977662
WTR 2.003958 4.865145 2.599758
WTR 1.805384 4.226054 5.853721
WTR 1.436414 4.691336 8.877124
WTR 1.109945 8.025320 0.321700
WTR 1.613998 7.564580 3.553379
WTR 1.484369 7.332996 6.521541
WTR 4.395550 1.324571 1.767702
WTR 5.392482 2.116845 4.909995
WTR 4.504199 2.005122 7.836849
WTR 5.015437 4.574303 2.253982
WTR 4.761402 5.356115 5.314704
WTR 4.609199 5.074035 8.462117
WTR 4.102019 7.322159 2.027196
WTR 4.554463 8.400740 4.969203
WTR 4.372919 8.387396 8.330823
WTR 7.515668 1.713696 0.883881
WTR 8.325197 1.007037 4.025504
WTR 7.639895 0.932111 6.971225
WTR 8.097372 5.273994 2.152497
WTR 8.037668 4.167676 5.210797
WTR 7.517505 4.003402 8.289939
WTR 7.107050 8.011788 1.281402
WTR 7.750305 7.311124 4.252425
WTR 7.436393 7.154236 7.416865
27
Lattice="9.308797283393945 0 0 0 9.308797283393945 0 0 0 9.308797283393945" Properties=species:S:1:pos:R:3 Step=18
WTR 1.420785 2.080269 0.817790
WTR 2.150087 1.413910 3.724088
WTR 1.482553 1.349711 6.936887
WTR 2.066032 4.782523 2.632841
WTR 1.834240 4.223889 5.924007
WTR 1.407493 4.723033 8.912145
WTR 1.094188 8.037394 0.246557
WTR 1.590446 7.605505 3.525913
WTR 1.493989 7.291836 6.462161
WTR 4.416426 1.270622 1.770701
WTR 5.455194 2.144786 4.972219
WTR 4.508362 2.020159 7.797315
WTR 5.033913 4.582067 2.325279
WTR 4.758314 5.408741 5.316546
WTR 4.638034 5.135134 8.505941
WTR 4.075672 7.266543 2.052726
WTR 4.571821 8.465255 4.975796
WTR 4.374787 8.434468 8.368847
WTR 7.468202 1.738604 0.860246
WTR 8.358262 0.956078 3.994784
WTR 7.654447 0.882254 6.905731
WTR 8.133831 5.298630 2.167899
WTR 8.054680 4.136036 5.232537
WTR 7.476451 3.967785 8.319030
WTR 7.054566 8.014851 1.285498
WTR 7.709599 7.316384 4.227008
WTR 7.386391 7.122297 7.408270
27
Lattice="9.308797283393945 0 0 0 9.308797283393945 0 0 0 9.308797283393945" Properties=species:S:1:pos:R:3 Step=19
WTR 1.401474 2.084129 0.806716
WTR 2.180000 1.428537 3.678679
WTR 1.442724 1.335620 6.896549
WTR 2.123701 4.690381 2.670313
WTR 1.867093 4.221353 5.989494
WTR 1.375384 4.767300 8.944132
WTR 1.077489 8.050479 0.171856
WTR 1.554686 7.654540 3.496619
WTR 1.503544 7.251687 6.408780
WTR 4.443824 1.214365 1.770228
WTR 5.518009 2.177869 5.025758
WTR 4.512124 2.043692 7.762898
WTR 5.064905 4.572626 2.397275
WTR 4.757062 5.460581 5.319909
WTR 4.663151 5.201550 8.551863
WTR 4.052421 7.221345 2.071313
WTR 4.588993 8.533529 4.984320
WTR 4.375936 8.474276 8.407483
WTR 7.420519 1.759255 0.843522
WTR 8.393523 0.909277 3.955334
WTR 7.666636 0.832735 6.847241
WTR 8.177046 5.310427 2.174079
WTR 8.070850 4.104092 5.252541
WTR 7.438418 3.938822 8.343160
WTR 6.999732 8.020462 1.284562
WTR 7.664301 7.323465 4.213018
WTR 7.335218 7.086369 7.401121
27
Lattice="9.308797283393945 0 0 0 9.308797283393945 0 0 0 9.308797283393945" Properties=species:S:1:pos:R:3 Step=20
WTR 1.380264 2.078274 0.793985
WTR 2.209413 1.446516 3.643830
WTR 1.403584 1.315745 6.857033
WTR 2.174125 4.593287 2.713055
WTR 1.904029 4.217228 6.049086
WTR 1.340473 4.823205 8.974398
WTR 1.059780 8.064904 0.098538
WTR 1.507057 7.708089 3.463192
WTR 1.512872 7.213920 6.362531
WTR 4.477199 1.156622 1.766197
WTR 5.580452 2.216644 5.066101
WTR 4.513535 2.076051 7.736830
WTR 5.111092 4.544845 2.468079
WTR 4.757425 5.511847 5.326443
WTR 4.683248 5.271911 8.599620
WTR 4.031826 7.187470 2.083046
WTR 4.605272 8.604072 4.994269
WTR 4.376102 8.506383 8.446321
WTR 7.373965 1.771355 0.836593
WTR 8.431099 0.868561 3.906561
WTR 7.675987 0.783212 6.797897
WTR 8.226895 5.309685 2.170793
WTR 8.087294 4.072965 5.270620
WTR 7.404494 3.920005 8.358592
WTR 6.943662 8.028132 1.278310
WTR 7.614077 7.330930 4.211446
WTR 7.283543 7.046907 7.395400
27
Lattice="9.308797283393945 0 0 0 9.308797283393945 0 0 0 9.308797283393945" Properties=species:S:1:pos:R:3 Step=21
WTR 1.357390 2.064179 0.778155
WTR 2.237887 1.467372 3.621248
WTR 1.367133 1.290525 6.818866
WTR 2.215629 4.495829 2.760272
WTR 1.944732 4.210041 6.101908
WTR 1.303577 4.888038 9.004235
WTR 1.041101 8.081030 0.028032
WTR 1.449186 7.763182 3.424573
WTR 1.521803 7.180177 6.323895
WTR 4.514716 1.098729 1.759399
WTR 5.641218 2.260856 5.089513
WTR 4.510796 2.116202 7.721874
WTR 5.172493 4.500633 2.535256
WTR 4.759079 5.562654 5.337396
WTR 4.697247 5.344057 8.648656
WTR 4.013305 7.163398 2.089151
WTR 4.619825 8.674920 5.005136
WTR 4.374967 8.531075 8.483790
WTR 7.330557 1.772112 0.841306
WTR 8.470377 0.835732 3.849242
WTR 7.681973 0.733337 6.759037
WTR 8.282200 5.298326 2.159174
WTR 8.105482 4.044226 5.286407
WTR 7.375691 3.913793 8.362556
WTR 6.888451 8.036556 1.267214
WTR 7.559354 7.336711 4.221349
WTR 7.232594 7.005073 7.391126
27
Lattice="9.308797283393945 0 0 0 9.308797283393945 0 0 0 9.308797283393945" Properties=species:S:1:pos:R:3 Step=22
WTR 1.333142 2.043915 0.758341
WTR 2.265724 1.489536 3.611581
WTR 1.335221 1.260842 6.782323
WTR 2.248430 4.402484 2.810229
WTR 1.988735 4.198395 6.147989
WTR 1.265744 4.958256 9.034535
WTR 1.021445 8.099398 9.270334
WTR 1.383472 7.817404 3.380662
WTR 1.530218 7.151832 6.292133
WTR 4.553304 1.042144 1.751669
WTR 5.698388 2.309350 5.094771
WTR 4.502874 2.162418 7.719002
WTR 5.246721 4.443922 2.596810
WTR 4.761598 5.612932 5.353276
WTR 4.704499 5.415573 8.698486
WTR 3.996105 7.145822 2.091885
WTR 4.631926 8.744407 5.016565
WTR 4.372088 8.549445 8.517752
WTR 7.292677 1.761933 0.857063
WTR 8.510088 0.811817 3.785173
WTR 7.683998 0.682876 6.730643
WTR 8.341205 5.279218 2.141315
WTR 8.127416 4.019531 5.299545
WTR 7.352513 3.920055 8.354721
WTR 6.836407 8.043873 1.252303
WTR 7.501107 7.339002 4.240238
WTR 7.183716 6.962385 7.388214
27
Lattice="9.308797283393945 0 0 0 9.308797283393945 0 0 0 9.308797283393945" Properties=species:S:1:pos:R:3 Step=23
WTR 1.307729 2.019419 0.734321
WTR 2.293801 1.509975 3.614631
WTR 1.309114 1.227549 6.747150
WTR 2.274314 4.317583 2.860961
WTR 2.035793 4.181263 6.188476
WTR 1.228002 5.030684 9.065578
WTR 1.000545 8.120898 9.208226
WTR 1.312338 7.868827 3.331613
WTR 1.538100 7.129541 6.265369
WTR 4.589123 0.987984 1.745679
WTR 5.749853 2.360523 5.083554
WTR 4.489732 2.213198 7.727172
WTR 5.330641 4.378787 2.651843
WTR 4.764475 5.662699 5.373859
WTR 4.704754 5.484439 8.749079
WTR 3.979157 7.131130 2.094083
WTR 4.641102 8.811956 5.028483
WTR 4.366807 8.563170 8.545944
WTR 7.262843 1.744339 0.880912
WTR 8.548491 0.797188 3.716300
WTR 7.681340 0.631290 6.711323
WTR 8.402299 5.255058 2.119650
WTR 8.155756 4.000299 5.309816
WTR 7.334771 3.936021 8.337197
WTR 6.789589 8.047920 1.234734
WTR 7.440358 7.336973 4.265079
WTR 7.137938 6.920048 7.386530
27
Lattice="9.308797283393945 0 0 0 9.308797283393945 0 0 0 9.308797283393945" Properties=species:S:1:pos:R:3 Step=24
WTR 1.281208 1.992080 0.706300
WTR 2.323224 1.523854 3.630161
WTR 1.289408 1.191091 6.712582
WTR 2.295531 4.245820 2.910692
WTR 2.086094 4.157951 6.225296
WTR 1.191357 5.103162 9.096960
WTR 0.977823 8.146859 9.149978
WTR 1.237898 7.915591 3.277122
WTR 1.545544 7.113171 6.241126
WTR 4.618090 0.936773 1.744548
WTR 5.793731 2.412287 5.059519
WTR 4.471988 2.267857 7.744359
WTR 5.421909 4.308434 2.700176
WTR 4.767087 5.712339 5.398545
WTR 4.697935 5.548886 8.800927
WTR 3.961059 7.116472 2.098699
WTR 4.647086 8.878055 5.041135
WTR 4.358153 8.574200 8.566037
WTR 7.243596 1.724259 0.908925
WTR 8.583397 0.792212 3.644220
WTR 7.673148 0.578000 6.699106
WTR 8.464332 5.227633 2.096470
WTR 8.193796 3.987856 5.317140
WTR 7.321757 3.957749 8.313162
WTR 6.749920 8.046324 1.215393
WTR 7.377827 7.330786 4.293089
WTR 7.095865 6.879060 7.385894
27
Lattice="9.308797283393945 0 0 0 9.308797283393945 0 0 0 9.308797283393945" Properties=species:S:1:pos:R:3 Step=25
WTR 1.253647 1.962898 0.674760
WTR 2.355009 1.524731 3.658428
WTR 1.276245 1.151565 6.677694
WTR 2.314094 4.192769 2.957698
WTR 2.140012 4.128082 6.260464
WTR 1.157287 5.174225 9.127296
WTR 0.952479 8.178858 9.094680
WTR 1.162511 7.954945 3.216315
WTR 1.552707 7.102049 6.216946
WTR 4.636358 0.888907 1.751410
WTR 5.828702 2.461694 5.027716
WTR 4.450523 2.326533 7.768709
WTR 5.519056 4.235876 2.740841
WTR 4.768523 5.762020 5.426623
WTR 4.683991 5.607063 8.854553
WTR 3.940273 7.100121 2.108665
WTR 4.649669 8.943958 5.055021
WTR 4.344874 8.584556 8.575648
WTR 7.237237 1.706416 0.937305
WTR 8.611882 0.798397 3.570268
WTR 7.658593 0.522529 6.692117
WTR 8.526067 5.197832 2.074297
WTR 8.244929 3.983190 5.321442
WTR 7.312641 3.981300 8.285862
WTR 6.719223 8.036566 1.194816
WTR 7.314213 7.321221 4.321816
WTR 7.058018 6.840463 7.386173
27
Lattice="9.308797283393945 0 0 0 9.308797283393945 0 0 0 9.308797283393945" Properties=species:S:1:pos:R:3 Step=26
WTR 1.225416 1.932974 0.640474
WTR 2.389558 1.506652 3.699673
WTR 1.269443 1.109095 6.641888
WTR 2.331426 4.163690 3.000323
WTR 2.197455 4.092253 6.295416
WTR 1.128317 5.242592 9.153735
WTR 0.923703 8.218166 9.041646
WTR 1.089373 7.982590 3.148202
WTR 1.559744 7.095128 6.190813
WTR 4.641252 0.844874 1.768668
WTR 5.854613 2.504754 4.995470
WTR 4.426472 2.388848 7.799022
WTR 5.620540 4.165358 2.770318
WTR 4.767337 5.811207 5.457223
WTR 4.663066 5.656698 8.909767
WTR 3.915293 7.081365 2.126838
WTR 4.648684 9.010561 5.070766
WTR 4.325731 8.596259 8.572569
WTR 7.244833 1.694464 0.962563
WTR 8.630523 0.818760 3.496796
WTR 7.637208 0.464926 6.688926
WTR 8.585249 5.165980 2.056553
WTR 8.311495 3.986668 5.322632
WTR 7.306772 4.002871 8.257984
WTR 6.699266 8.016433 1.173344
WTR 7.250816 7.309425 4.348766
WTR 7.025180 6.806173 7.387185
27
Lattice="9.308797283393945 0 0 0 9.308797283393945 0 0 0 9.308797283393945" Properties=species:S:1:pos:R:3 Step=27
WTR 1.197381 1.903946 0.604446
WTR 2.426082 1.468042 3.752630
WTR 1.268385 1.064128 6.605217
WTR 2.348366 4.160422 3.037608
WTR 2.257183 4.052062 6.330521
WTR 1.108150 5.306975 9.171933
WTR 0.890851 8.264942 8.990674
WTR 1.022139 7.993640 3.072346
WTR 1.566750 7.091218 6.161415
WTR 4.632592 0.805797 1.796994
WTR 5.872642 2.535855 4.973479
WTR 4.401498 2.453447 7.834828
WTR 5.724075 4.104096 2.781030
WTR 4.761410 5.858604 5.489318
WTR 4.635852 5.694555 8.965132
WTR 3.884956 7.060684 2.155805
WTR 4.644279 9.076914 5.089108
WTR 4.300013 8.611141 8.555504
WTR 7.264803 1.690528 0.981149
WTR 8.636450 0.856535 3.427841
WTR 7.609317 0.406290 6.688581
WTR 8.638751 5.132047 2.047719
WTR 8.393562 3.997709 5.320665
WTR 7.303779 4.018664 8.231915
WTR 6.691222 7.984917 1.151324
WTR 7.189926 7.296846 4.371178
WTR 6.998349 6.778758 7.389200
27
Lattice="9.308797283393945 0 0 0 9.308797283393945 0 0 0 9.308797283393945" Properties=species:S:1:pos:R:3 Step=28
WTR 1.170918 1.878233 0.568301
WTR 2.461924 1.413884 3.813358
WTR 1.271844 1.017978 6.568686
WTR 2.365379 4.179240 3.069714
WTR 2.316297 4.010294 6.364668
WTR 1.100494 5.366119 9.177274
WTR 0.853713 8.317395 8.941925
WTR 0.963067 7.985397 2.989702
WTR 1.573716 7.088877 6.128320
WTR 4.613265 0.772593 1.834578
WTR 5.884839 2.549992 4.973423
WTR 4.378188 2.517850 7.876311
WTR 5.826715 4.060221 2.764065
WTR 4.748212 5.902005 5.521746
WTR 4.603823 5.717820 9.017958
WTR 3.849436 7.039387 2.197225
WTR 4.637374 9.139939 5.111000
WTR 4.268052 8.630330 8.524916
WTR 7.292281 1.695132 0.988850
WTR 8.629965 0.912215 3.369329
WTR 7.576305 0.349011 6.690491
WTR 8.682937 5.095995 2.052142
WTR 8.488337 4.014802 5.315308
WTR 7.303550 4.025213 8.209662
WTR 6.694919 7.943017 1.129320
WTR 7.134757 7.285147 4.386342
WTR 6.978453 6.760678 7.392948
27
Lattice="9.308797283393945 0 0 0 9.308797283393945 0 0 0 9.308797283393945" Properties=species:S:1:pos:R:3 Step=29
WTR 1.147697 1.858872 0.533869
WTR 2.492546 1.353599 3.875426
WTR 1.277920 0.972569 6.534293
WTR 2.382632 4.212850 3.097585
WTR 2.370454 3.970617 6.395235
WTR 1.106854 5.419128 9.167349
WTR 0.812447 8.371611 8.896111
WTR 0.911765 7.959645 2.902818
WTR 1.580508 7.086842 6.091916
WTR 4.588327 0.745433 1.877365
WTR 5.893173 2.547911 5.000347
WTR 4.360154 2.578013 7.924374
WTR 5.925430 4.037122 2.716977
WTR 4.725593 5.939118 5.553426
WTR 4.568998 5.725552 9.065223
WTR 3.810393 7.019284 2.251137
WTR 4.630115 9.194528 5.137802
WTR 4.231263 8.653785 8.483181
WTR 7.320159 1.707453 0.980696
WTR 8.615802 0.981589 3.328260
WTR 7.540473 0.296324 6.694261
WTR 8.715961 5.058136 2.071556
WTR 8.590957 4.035949 5.306618
WTR 7.306118 4.020351 8.192422
WTR 6.708659 7.893614 1.108174
WTR 7.088546 7.275870 4.391765
WTR 6.965819 6.753000 7.399374
27
Lattice="9.308797283393945 0 0 0 9.308797283393945 0 0 0 9.308797283393945" Properties=species:S:1:pos:R:3 Step=30
WTR 1.129292 1.848889 0.502589
WTR 2.512669 1.296625 3.931802
WTR 1.284223 0.929784 6.504354
WTR 2.400180 4.254091 3.122573
WTR 2.415248 3.936138 6.418937
WTR 1.125867 5.465926 9.143384
WTR 0.766940 8.422809 8.853626
WTR 0.865400 7.921496 2.814271
WTR 1.586929 7.084131 6.052725
WTR 4.563025 0.723405 1.920810
WTR 5.899664 2.537591 5.049047
WTR 4.351341 2.629892 7.981089
WTR 6.017005 4.030796 2.646905
WTR 4.692555 5.968801 5.583871
WTR 4.533068 5.719149 9.105431
WTR 3.770116 7.001801 2.316293
WTR 4.625799 9.234854 5.171558
WTR 4.191271 8.680791 8.433225
WTR 7.341832 1.725542 0.952237
WTR 8.600674 1.058177 3.310278
WTR 7.504186 0.251255 6.699594
WTR 8.740141 5.019227 2.103772
WTR 8.696977 4.059428 5.295024
WTR 7.311553 4.003978 8.180046
WTR 6.729980 7.839959 1.088722
WTR 7.052984 7.269887 4.385865
WTR 6.959843 6.754341 7.409531
27
Lattice="9.308797283393945 0 0 0 9.308797283393945 0 0 0 9.308797283393945" Properties=species:S:1:pos:R:3 Step=31
WTR 1.117028 1.850847 0.475184
WTR 2.517635 1.249451 3.975621
WTR 1.288217 0.890939 6.481283
WTR 2.418199 4.297783 3.146109
WTR 2.447577 3.908711 6.433025
WTR 1.154372 5.506866 9.108851
WTR 0.716373 8.466647 8.814392
WTR 0.820325 7.876339 2.725462
WTR 1.592714 7.080024 6.010876