27
Lattice="11.20461838071637 0 0 0 11.20461838071637 0 0 0 11.20461838071637" Properties=species:S:1:pos:R:3 Step=0
POX 1.897723 1.815812 1.916431
POX 1.896280 1.895081 5.569729
WTR 1.853170 1.931500 9.254898
WTR 1.866369 5.627954 1.913532
WTR 1.838886 5.605602 5.542187
WTR 1.965051 5.670990 9.294499
POX 1.974173 9.215043 1.910636
WTR 1.828068 9.279538 5.523886
POX 1.838619 9.314582 9.245501
WTR 5.528783 1.856850 1.882259
POX 5.597010 1.851065 5.632939
WTR 5.598549 1.909260 9.274238
WTR 5.658729 5.617588 1.842947
WTR 5.642271 5.689793 5.601109
WTR 5.676746 5.569613 9.309169
WTR 5.589090 9.283830 1.960515
WTR 5.610458 9.380517 5.612040
WTR 5.523674 9.268772 9.362071
WTR 9.277344 1.819034 1.860317
WTR 9.212854 2.006218 5.690538
WTR 9.353093 1.928801 9.348024
WTR 9.230657 5.563946 1.911943
POX 9.267878 5.516398 5.693849
WTR 9.282274 5.603654 9.257018
WTR 9.248666 9.273444 1.972555
POX 9.338878 9.273256 5.510058
WTR 9.352166 9.253060 9.310357
27
Lattice="11.20461838071637 0 0 0 11.20461838071637 0 0 0 11.20461838071637" Properties=species:S:1:pos:R:3 Step=1
POX 1.900658 1.782790 1.889260
POX 1.885991 1.901447 5.568057
WTR 1.852405 1.922249 9.236841
WTR 1.878854 5.652931 1.896695
WTR 1.829088 5.612659 5.543588
WTR 1.974167 5.681735 9.300803
POX 1.957561 9.218513 1.910468
WTR 1.842464 9.262492 5.510214
POX 1.840303 9.325995 9.274030
WTR 5.544226 1.862960 1.895112
POX 5.605601 1.834804 5.671082
WTR 5.593277 1.895363 9.283027
WTR 5.662151 5.617600 1.820820
WTR 5.658422 5.677498 5.589085
WTR 5.677266 5.545124 9.322933
WTR 5.595366 9.293238 1.941049
WTR 5.623898 9.369434 5.624919
WTR 5.535435 9.262030 9.363090
WTR 9.280059 1.815761 1.849816
WTR 9.218427 2.028541 5.674176
WTR 9.360933 1.925889 9.372575
WTR 9.219227 5.575571 1.888906
POX 9.270799 5.524902 5.686541
WTR 9.267325 5.609461 9.214670
WTR 9.244452 9.274185 1.967367
POX 9.325866 9.286858 5.517567
WTR 9.356129 9.274355 9.306346
27
Lattice="11.20461838071637 0 0 0 11.20461838071637 0 0 0 11.20461838071637" Properties=species:S:1:pos:R:3 Step=2
POX 1.903551 1.749853 1.861843
POX 1.875525 1.907799 5.566573
WTR 1.851671 1.913022 9.218898
WTR 1.891366 5.677614 1.879851
WTR 1.819326 5.619818 5.545013
WTR 1.983285 5.692319 9.307087
POX 1.940891 9.221965 1.910288
WTR 1.856970 9.245438 5.496722
POX 1.841993 9.337459 9.302529
WTR 5.559860 1.869071 1.907950
POX 5.614305 1.818576 5.709190
WTR 5.588006 1.881463 9.292036
WTR 5.665507 5.617628 1.798704
WTR 5.674393 5.665194 5.577060
WTR 5.677776 5.520641 9.336672
WTR 5.601804 9.302649 1.921596
WTR 5.637233 9.358195 5.637786
WTR 5.547313 9.255265 9.364104
WTR 9.282733 1.812502 1.839365
WTR 9.224206 2.050354 5.657803
WTR 9.368739 1.923002 9.397079
WTR 9.207828 5.587216 1.865860
POX 9.273768 5.533455 5.679114
WTR 9.252384 5.615263 9.172697
WTR 9.240253 9.274902 1.961823
POX 9.312852 9.300578 5.525177
WTR 9.359956 9.295646 9.302350
27
Lattice="11.20461838071637 0 0 0 11.20461838071637 0 0 0 11.20461838071637" Properties=species:S:1:pos:R:3 Step=3
POX 1.906410 1.717015 1.834199
POX 1.864901 1.914139 5.565225
WTR 1.850971 1.903820 9.201080
WTR 1.903919 5.701961 1.862985
WTR 1.809599 5.627080 5.546460
WTR 1.992415 5.702751 9.313355
POX 1.924158 9.225378 1.910105
WTR 1.871571 9.228381 5.483454
POX 1.843695 9.348982 9.330999
WTR 5.575681 1.875185 1.920789
POX 5.623101 1.802368 5.747275
WTR 5.582733 1.867545 9.301338
WTR 5.668795 5.617678 1.776580
WTR 5.690177 5.652869 5.565029
WTR 5.678274 5.496152 9.350388
WTR 5.608371 9.312068 1.902142
WTR 5.650450 9.346786 5.650647
WTR 5.559307 9.248469 9.365115
WTR 9.285371 1.809249 1.828962
WTR 9.230188 2.071629 5.641412
WTR 9.376512 1.920136 9.421538
WTR 9.196455 5.598887 1.842793
POX 9.276794 5.542085 5.671524
WTR 9.237436 5.621073 9.131180
WTR 9.236071 9.275603 1.955945
POX 9.299838 9.314423 5.532884
WTR 9.363645 9.316950 9.298379
27
Lattice="11.20461838071637 0 0 0 11.20461838071637 0 0 0 11.20461838071637" Properties=species:S:1:pos:R:3 Step=4
POX 1.909243 1.684300 1.806336
POX 1.854136 1.920470 5.563966
WTR 1.850308 1.894644 9.183399
WTR 1.916529 5.725935 1.846083
WTR 1.799906 5.634440 5.547927
WTR 2.001566 5.713041 9.319613
POX 1.907356 9.228720 1.909935
WTR 1.886256 9.211321 5.470449
POX 1.845413 9.360573 9.359438
WTR 5.591686 1.881308 1.933643
POX 5.631977 1.786168 5.785347
WTR 5.577454 1.853591 9.311014
WTR 5.672011 5.617755 1.754437
WTR 5.705768 5.640511 5.552988
WTR 5.678758 5.471642 9.364083
WTR 5.615037 9.321496 1.882672
WTR 5.663530 9.335191 5.663508
WTR 5.571422 9.241639 9.366125
WTR 9.287972 1.805994 1.818605
WTR 9.236366 2.092334 5.624994
WTR 9.384253 1.917285 9.445957
WTR 9.185101 5.610590 1.819692
POX 9.279888 5.550819 5.663720
WTR 9.222467 5.626900 9.090217
WTR 9.231908 9.276296 1.949755
POX 9.286831 9.328401 5.540680
WTR 9.367193 9.338284 9.294442
27
Lattice="11.20461838071637 0 0 0 11.20461838071637 0 0 0 11.20461838071637" Properties=species:S:1:pos:R:3 Step=5
POX 1.912058 1.651741 1.778256
POX 1.843243 1.926796 5.562753
WTR 1.849683 1.885496 9.165868
WTR 1.929213 5.749497 1.829130
WTR 1.790245 5.641894 5.549415
WTR 2.010752 5.723202 9.325862
POX 1.890475 9.231950 1.909796
WTR 1.901019 9.194261 5.457740
POX 1.847154 9.372240 9.387845
WTR 5.607875 1.887442 1.946524
POX 5.640921 1.769961 5.823416
WTR 5.572164 1.839583 9.321159
WTR 5.675150 5.617865 1.732263
WTR 5.721158 5.628108 5.540932
WTR 5.679227 5.447094 9.377757
WTR 5.621775 9.330938 1.863168
WTR 5.676449 9.323393 5.676379
WTR 5.583660 9.234769 9.367136
WTR 9.290542 1.802728 1.808298
WTR 9.242734 2.112437 5.608537
WTR 9.391966 1.914446 9.470338
WTR 9.173761 5.622332 1.796543
POX 9.283058 5.559686 5.655644
WTR 9.207457 5.632754 9.049930
WTR 9.227764 9.276988 1.943270
POX 9.273833 9.342519 5.548563
WTR 9.370598 9.359665 9.290548
27
Lattice="11.20461838071637 0 0 0 11.20461838071637 0 0 0 11.20461838071637" Properties=species:S:1:pos:R:3 Step=6
POX 1.914864 1.619382 1.749952
POX 1.832232 1.933121 5.561549
WTR 1.849101 1.876378 9.148504
WTR 1.941989 5.772607 1.812107
WTR 1.780613 5.649437 5.550923
WTR 2.019985 5.733245 9.332107
POX 1.873503 9.235012 1.909718
WTR 1.915860 9.177203 5.445357
POX 1.848924 9.383992 9.416214
WTR 5.624246 1.893591 1.959440
POX 5.649928 1.753733 5.861489
WTR 5.566858 1.825504 9.331881
WTR 5.678207 5.618014 1.710048
WTR 5.736340 5.615646 5.528855
WTR 5.679677 5.422491 9.391406
WTR 5.628564 9.340398 1.843611
WTR 5.689178 9.311374 5.689272
WTR 5.596026 9.227856 9.368149
WTR 9.293083 1.799443 1.798046
WTR 9.249278 2.131907 5.592025
WTR 9.399655 1.911614 9.494682
WTR 9.162429 5.634120 1.773330
POX 9.286315 5.568714 5.647232
WTR 9.192384 5.638648 9.010461
WTR 9.223640 9.277688 1.936507
POX 9.260851 9.356788 5.556526
WTR 9.373859 9.381112 9.286709
27
Lattice="11.20461838071637 0 0 0 11.20461838071637 0 0 0 11.20461838071637" Properties=species:S:1:pos:R:3 Step=7
POX 1.917670 1.587286 1.721409
POX 1.821110 1.939448 5.560322
WTR 1.848565 1.867294 9.131322
WTR 1.954879 5.795223 1.794996
WTR 1.771011 5.657060 5.552452
WTR 2.029278 5.743187 9.338348
POX 1.856421 9.237836 1.909737
WTR 1.930784 9.160148 5.433324
POX 1.850728 9.395838 9.444537
WTR 5.640802 1.899761 1.972399
POX 5.658995 1.737468 5.899571
WTR 5.561526 1.811333 9.343300
WTR 5.681175 5.618207 1.687790
WTR 5.751306 5.603111 5.516747
WTR 5.680109 5.397812 9.405026
WTR 5.635385 9.349882 1.823980
WTR 5.701680 9.299116 5.702200
WTR 5.608525 9.220895 9.369165
WTR 9.295599 1.796127 1.787860
WTR 9.255986 2.150713 5.575441
WTR 9.407324 1.908785 9.518990
WTR 9.151099 5.645962 1.750032
POX 9.289673 5.577932 5.638410
WTR 9.177221 5.644593 8.971975
WTR 9.219537 9.278405 1.929479
POX 9.247890 9.371217 5.564568
WTR 9.376975 9.402645 9.282935
27
Lattice="11.20461838071637 0 0 0 11.20461838071637 0 0 0 11.20461838071637" Properties=species:S:1:pos:R:3 Step=8
POX 1.920487 1.555529 1.692602
POX 1.809884 1.945782 5.559041
WTR 1.848077 1.858248 9.114341
WTR 1.967908 5.817299 1.777776
WTR 1.761438 5.664752 5.554003
WTR 2.038646 5.753042 9.344590
POX 1.839210 9.240332 1.909901
WTR 1.945797 9.143096 5.421667
POX 1.852573 9.407788 9.472799
WTR 5.657546 1.905955 1.985408
POX 5.668123 1.721151 5.937666
WTR 5.556160 1.797051 9.355554
WTR 5.684047 5.618450 1.665487
WTR 5.766048 5.590486 5.504600
WTR 5.680520 5.373037 9.418605
WTR 5.642220 9.359396 1.804254
WTR 5.713912 9.286597 5.715179
WTR 5.621164 9.213881 9.370186
WTR 9.298093 1.792770 1.777758
WTR 9.262841 2.168824 5.558765
WTR 9.414979 1.905956 9.543257
WTR 9.139768 5.657868 1.726631
POX 9.293143 5.587371 5.629098
WTR 9.161935 5.650602 8.934659
WTR 9.215453 9.279149 1.922198
POX 9.234956 9.385819 5.572686
WTR 9.379945 9.424285 9.279240
27
Lattice="11.20461838071637 0 0 0 11.20461838071637 0 0 0 11.20461838071637" Properties=species:S:1:pos:R:3 Step=9
POX 1.923328 1.524212 1.663498
POX 1.798556 1.952128 5.557679
WTR 1.847642 1.849243 9.097581
WTR 1.981101 5.838783 1.760426
WTR 1.751893 5.672502 5.555578
WTR 2.048104 5.762827 9.350831
POX 1.821844 9.242392 1.910269
WTR 1.960912 9.126051 5.410404
POX 1.854465 9.419856 9.500979
WTR 5.674483 1.912178 1.998473
POX 5.677317 1.704765 5.975775
WTR 5.550747 1.782636 9.368793
WTR 5.686815 5.618750 1.643144
WTR 5.780556 5.577755 5.492403
WTR 5.680912 5.348141 9.432130
WTR 5.649057 9.368947 1.784410
WTR 5.725821 9.273795 5.728227
WTR 5.633951 9.206810 9.371211
WTR 9.300570 1.789361 1.767764
WTR 9.269823 2.186211 5.541976
WTR 9.422627 1.903121 9.567475
WTR 9.128430 5.669845 1.703103
POX 9.296742 5.597060 5.619206
WTR 9.146491 5.656687 8.898724
WTR 9.211388 9.279929 1.914673
POX 9.222058 9.400606 5.580876
WTR 9.382769 9.446052 9.275636
27
Lattice="11.20461838071637 0 0 0 11.20461838071637 0 0 0 11.20461838071637" Properties=species:S:1:pos:R:3 Step=10
POX 1.926206 1.493456 1.634058
POX 1.787128 1.958492 5.556212
WTR 1.847263 1.840286 9.081061
WTR 1.994488 5.859616 1.742925
WTR 1.742377 5.680293 5.557180
WTR 2.057669 5.772558 9.357074
POX 1.804291 9.243883 1.910919
WTR 1.976145 9.109015 5.399557
POX 1.856411 9.432051 9.529046
WTR 5.691622 1.918434 2.011596
POX 5.686584 1.688291 6.013895
WTR 5.545273 1.768068 9.383183
WTR 5.689467 5.619115 1.620776
WTR 5.794820 5.564902 5.480146
WTR 5.681282 5.323099 9.445579
WTR 5.655882 9.378545 1.764424
WTR 5.737348 9.260685 5.741361
WTR 5.646895 9.199678 9.372239
WTR 9.303034 1.785888 1.757907
WTR 9.276911 2.202846 5.525052
WTR 9.430275 1.900279 9.591627
WTR 9.117082 5.681903 1.679425
POX 9.300483 5.607029 5.608640
WTR 9.130846 5.662860 8.864395
WTR 9.207340 9.280756 1.906910
POX 9.209206 9.415592 5.589136
WTR 9.385448 9.467968 9.272139
27
Lattice="11.20461838071637 0 0 0 11.20461838071637 0 0 0 11.20461838071637" Properties=species:S:1:pos:R:3 Step=11
POX 1.929137 1.463408 1.604234
POX 1.775601 1.964879 5.554616
WTR 1.846945 1.831384 9.064807
WTR 2.008100 5.879732 1.725251
WTR 1.732894 5.688105 5.558812
WTR 2.067356 5.782251 9.363314
POX 1.786518 9.244652 1.911941
WTR 1.991513 9.091994 5.389145
POX 1.858420 9.444388 9.556959
WTR 5.708969 1.924729 2.024781
POX 5.695933 1.671714 6.052017
WTR 5.539722 1.753323 9.398904
WTR 5.691993 5.619552 1.598402
WTR 5.808828 5.551909 5.467818
WTR 5.681631 5.297888 9.458921
WTR 5.662685 9.388196 1.744276
WTR 5.748421 9.247243 5.754601
WTR 5.660002 9.192481 9.373270
WTR 9.305488 1.782338 1.748230
WTR 9.284079 2.218705 5.507972
WTR 9.437933 1.897427 9.615687
WTR 9.105722 5.694050 1.655575
POX 9.304385 5.617306 5.597305
WTR 9.114955 5.669135 8.831911
WTR 9.203309 9.281641 1.898916
POX 9.196413 9.430791 5.597465
WTR 9.387981 9.490051 9.268763
27
Lattice="11.20461838071637 0 0 0 11.20461838071637 0 0 0 11.20461838071637" Properties=species:S:1:pos:R:3 Step=12
POX 1.932141 1.434239 1.573975
POX 1.763975 1.971294 5.552869
WTR 1.846694 1.822548 9.048844
WTR 2.021969 5.899054 1.707384
WTR 1.723449 5.695915 5.560478
WTR 2.077181 5.791924 9.369550
POX 1.768486 9.244523 1.913446
WTR 2.007035 9.074999 5.379190
POX 1.860501 9.456879 9.584660
WTR 5.726531 1.931066 2.038026
POX 5.705375 1.655018 6.090125
WTR 5.534077 1.738384 9.416144
WTR 5.694379 5.620072 1.576058
WTR 5.822566 5.538760 5.455410
WTR 5.681959 5.272482 9.472116
WTR 5.669455 9.397908 1.723946
WTR 5.758960 9.233442 5.767964
WTR 5.673282 9.185216 9.374301
WTR 9.307937 1.778698 1.738785
WTR 9.291299 2.233761 5.490717
WTR 9.445608 1.894564 9.639618
WTR 9.094352 5.706293 1.631531
POX 9.308463 5.627918 5.585104
WTR 9.098769 5.675523 8.801516
WTR 9.199291 9.282596 1.890693
POX 9.183696 9.446217 5.605859
WTR 9.390371 9.512317 9.265526
27
Lattice="11.20461838071637 0 0 0 11.20461838071637 0 0 0 11.20461838071637" Properties=species:S:1:pos:R:3 Step=13
POX 1.935240 1.406143 1.543227
POX 1.752253 1.977743 5.550952
WTR 1.846513 1.813789 9.033204
WTR 2.036128 5.917491 1.689308
WTR 1.714051 5.703695 5.562182
WTR 2.087158 5.801590 9.375772
POX 1.750152 9.243307 1.915563
WTR 2.022731 9.058046 5.369712
POX 1.862662 9.469533 9.612076
WTR 5.744313 1.937449 2.051328
POX 5.714922 1.638189 6.128194
WTR 5.528318 1.723231 9.435097
WTR 5.696609 5.620687 1.553791
WTR 5.836016 5.525443 5.442914
WTR 5.682265 5.246861 9.485110
WTR 5.676181 9.407688 1.703421
WTR 5.768874 9.219256 5.781467
WTR 5.686740 9.177882 9.375329
WTR 9.310383 1.774955 1.729640
WTR 9.298536 2.247991 5.473269
WTR 9.453308 1.891690 9.663366
WTR 9.082976 5.718637 1.607276
POX 9.312734 5.638889 5.571947
WTR 9.082239 5.682032 8.773444
WTR 9.195286 9.283632 1.882247
POX 9.171075 9.461880 5.614313
WTR 9.392618 9.534779 9.262449
27
Lattice="11.20461838071637 0 0 0 11.20461838071637 0 0 0 11.20461838071637" Properties=species:S:1:pos:R:3 Step=14
POX 1.938456 1.379328 1.511937
POX 1.740439 1.984228 5.548846
WTR 1.846409 1.805126 9.017921
WTR 2.050610 5.934939 1.671011
WTR 1.704714 5.711407 5.563928
WTR 2.097297 5.811260 9.381970
POX 1.731475 9.240807 1.918439
WTR 2.038617 9.041160 5.360740
POX 1.864914 9.482361 9.639112
WTR 5.762314 1.943880 2.064677
POX 5.724584 1.621221 6.166185
WTR 5.522426 1.707851 9.455957
WTR 5.698668 5.621409 1.531668
WTR 5.849157 5.511946 5.430327
WTR 5.682550 5.221010 9.497836
WTR 5.682852 9.417539 1.682691
WTR 5.778060 9.204662 5.795121
WTR 5.700378 9.170479 9.376348
WTR 9.312829 1.771097 1.720876
WTR 9.305754 2.261373 5.455619
WTR 9.461041 1.888809 9.686858
WTR 9.071602 5.731083 1.582799
POX 9.317213 5.650239 5.557758
WTR 9.065321 5.688670 8.747913
WTR 9.191293 9.284760 1.873583
POX 9.158580 9.477788 5.622819
WTR 9.394722 9.557437 9.259552
27
Lattice="11.20461838071637 0 0 0 11.20461838071637 0 0 0 11.20461838071637" Properties=species:S:1:pos:R:3 Step=15
POX 1.941815 1.354009 1.480062
POX 1.728545 1.990749 5.546534
WTR 1.846388 1.796580 9.003035
WTR 2.065442 5.951280 1.652491
WTR 1.695456 5.719011 5.565721
WTR 2.107607 5.820944 9.388127
POX 1.712411 9.236834 1.922233
WTR 2.054707 9.024375 5.352302
POX 1.867269 9.495367 9.665655
WTR 5.780531 1.950359 2.078059
POX 5.734368 1.604111 6.204048
WTR 5.516381 1.692235 9.478904
WTR 5.700537 5.622254 1.509778
WTR 5.861963 5.498264 5.417649
WTR 5.682811 5.194921 9.510209
WTR 5.689453 9.427464 1.661761
WTR 5.786408 9.189640 5.808937
WTR 5.714193 9.163012 9.377352
WTR 9.315274 1.767112 1.712593
WTR 9.312906 2.273885 5.437761
WTR 9.468811 1.885927 9.709998
WTR 9.060246 5.743626 1.558098
POX 9.321911 5.661979 5.542479
WTR 9.047975 5.695439 8.725104
WTR 9.187309 9.285993 1.864706
POX 9.146242 9.493943 5.631367
WTR 9.396683 9.580285 9.256858
27
Lattice="11.20461838071637 0 0 0 11.20461838071637 0 0 0 11.20461838071637" Properties=species:S:1:pos:R:3 Step=16
POX 1.945342 1.330391 1.447568
POX 1.716583 1.997304 5.544001
WTR 1.846455 1.788180 8.988590
WTR 2.080652 5.966377 1.633752
WTR 1.686305 5.726456 5.567564
WTR 2.118091 5.830643 9.394221
POX 1.692925 9.231223 1.927114
WTR 2.071012 9.007735 5.344434
POX 1.869738 9.508550 9.691570
WTR 5.798948 1.956884 2.091454
POX 5.744280 1.586865 6.241715
WTR 5.510165 1.676382 9.504097
WTR 5.702195 5.623241 1.488229
WTR 5.874403 5.484400 5.404887
WTR 5.683048 5.168595 9.522127
WTR 5.695969 9.437460 1.640643
WTR 5.793799 9.174174 5.822913
WTR 5.728177 9.155487 9.378333
WTR 9.317718 1.762988 1.704909
WTR 9.319944 2.285507 5.419701
WTR 9.476623 1.883053 9.732666
WTR 9.048930 5.756256 1.533182
POX 9.326836 5.674117 5.526077
WTR 9.030172 5.702340 8.705152
WTR 9.183336 9.287341 1.855627
POX 9.134103 9.510342 5.639941
WTR 9.398501 9.603301 9.254395
27
Lattice="11.20461838071637 0 0 0 11.20461838071637 0 0 0 11.20461838071637" Properties=species:S:1:pos:R:3 Step=17
POX 1.949060 1.308649 1.414442
POX 1.704577 2.003889 5.541235
WTR 1.846618 1.779959 8.974634
WTR 2.096262 5.980081 1.614811
WTR 1.677291 5.733686 5.569462
WTR 2.128745 5.840355 9.400221
POX 1.672985 9.223854 1.933248
WTR 2.087532 8.991298 5.337177
POX 1.872334 9.521905 9.716710
WTR 5.817542 1.963448 2.104832
POX 5.754318 1.569499 6.279107
WTR 5.503762 1.660296 9.531665
WTR 5.703620 5.624389 1.467153
WTR 5.886441 5.470361 5.392055
WTR 5.683258 5.142045 9.533472
WTR 5.702381 9.447520 1.619365
WTR 5.800114 9.158257 5.837046
WTR 5.742314 9.147915 9.379280
WTR 9.320158 1.758716 1.697956
WTR 9.326810 2.296223 5.401455
WTR 9.484477 1.880201 9.754717
WTR 9.037682 5.768957 1.508073
POX 9.331990 5.686649 5.508552
WTR 9.011900 5.709366 8.688130
WTR 9.179372 9.288815 1.846359
POX 9.122208 9.526972 5.648523
WTR 9.400176 9.626452 9.252189
27
Lattice="11.20461838071637 0 0 0 11.20461838071637 0 0 0 11.20461838071637" Properties=species:S:1:pos:R:3 Step=18
POX 1.952987 1.288912 1.380692
POX 1.692552 2.010494 5.538226
WTR 1.846881 1.771957 8.961213
WTR 2.112288 5.992234 1.595694
WTR 1.668452 5.740637 5.571417
WTR 2.139561 5.850076 9.406092
POX 1.652570 9.214667 1.940787
WTR 2.104268 8.975129 5.330577
POX 1.875067 9.535418 9.740920
WTR 5.836282 1.970046 2.118159
POX 5.764480 1.552036 6.316133
WTR 5.497160 1.643990 9.561689
WTR 5.704791 5.625722 1.446704
WTR 5.898040 5.456162 5.379172
WTR 5.683438 5.115291 9.544109
WTR 5.708670 9.457633 1.597964
WTR 5.805234 9.141885 5.851320
WTR 5.756581 9.140310 9.380180
WTR 9.322588 1.754289 1.691884
WTR 9.333441 2.306022 5.383045
WTR 9.492371 1.877388 9.775986
WTR 9.026537 5.781705 1.482804
POX 9.337367 5.699563 5.489934
WTR 8.993160 5.716507 8.674040
WTR 9.175419 9.290425 1.836919
POX 9.110607 9.543814 5.657088
WTR 9.401706 9.649689 9.250268
27
Lattice="11.20461838071637 0 0 0 11.20461838071637 0 0 0 11.20461838071637" Properties=species:S:1:pos:R:3 Step=19
POX 1.957134 1.271245 1.346352
POX 1.680540 2.017110 5.534969
WTR 1.847252 1.764219 8.948371
WTR 2.128746 6.002673 1.576435
WTR 1.659833 5.747242 5.573434
WTR 2.150528 5.859792 9.411791
POX 1.631669 9.203679 1.949857
WTR 2.121214 8.959303 5.324682
POX 1.877950 9.549070 9.764049
WTR 5.855129 1.976666 2.131398
POX 5.774756 1.534505 6.352702
WTR 5.490349 1.627478 9.594204
WTR 5.705685 5.627265 1.427045
WTR 5.909161 5.441825 5.366262
WTR 5.683583 5.088360 9.553898
WTR 5.714813 9.467786 1.576491
WTR 5.809052 9.125065 5.865717
WTR 5.770953 9.132690 9.381019
WTR 9.325004 1.749701 1.686849
WTR 9.339769 2.314899 5.364504
WTR 9.500304 1.874636 9.796293
WTR 9.015536 5.794473 1.457417
POX 9.342956 5.712840 5.470287
WTR 8.973973 5.723752 8.662814
WTR 9.171475 9.292178 1.827327
POX 9.099351 9.560842 5.665611
WTR 9.403092 9.672953 9.248659
27
Lattice="11.20461838071637 0 0 0 11.20461838071637 0 0 0 11.20461838071637" Properties=species:S:1:pos:R:3 Step=20
POX 1.961508 1.255642 1.311477
POX 1.668577 2.023724 5.531459
WTR 1.847735 1.756792 8.936142
WTR 2.145647 6.011244 1.557076
WTR 1.651477 5.753431 5.575517
WTR 2.161630 5.869492 9.417270
POX 1.610283 9.190982 1.960544
WTR 2.138362 8.943898 5.319546
POX 1.880994 9.562835 9.785963
WTR 5.874039 1.983298 2.144508
POX 5.785135 1.516939 6.388726
WTR 5.483324 1.610781 9.629191
WTR 5.706284 5.629045 1.408350
WTR 5.919770 5.427374 5.353353
WTR 5.683689 5.061282 9.562691
WTR 5.720789 9.477967 1.555002
WTR 5.811477 9.107804 5.880211
WTR 5.785399 9.125070 9.381781
WTR 9.327398 1.744946 1.683013
WTR 9.345726 2.322858 5.345867
WTR 9.508273 1.871972 9.815449
WTR 9.004720 5.807231 1.431961
POX 9.348738 5.726452 5.449697
WTR 8.954373 5.731087 8.654314
WTR 9.167538 9.294083 1.817604
POX 9.088487 9.578026 5.674065
WTR 9.404334 9.696178 9.247391
27
Lattice="11.20461838071637 0 0 0 11.20461838071637 0 0 0 11.20461838071637" Properties=species:S:1:pos:R:3 Step=21
POX 1.966102 1.242028 1.276146
POX 1.656697 2.030325 5.527697
WTR 1.848335 1.749725 8.924549
WTR 2.163004 6.017806 1.537661
WTR 1.643432 5.759134 5.577669
WTR 2.172850 5.879163 9.422477
POX 1.588419 9.176740 1.972889
WTR 2.155710 8.928991 5.315222
POX 1.884207 9.576683 9.806558
WTR 5.892968 1.989933 2.157450
POX 5.795604 1.499372 6.424134
WTR 5.476083 1.593915 9.666585
WTR 5.706568 5.631091 1.390785
WTR 5.929837 5.412834 5.340470
WTR 5.683748 5.034085 9.570346
WTR 5.726578 9.488161 1.533556
WTR 5.812436 9.090116 5.894776
WTR 5.799889 9.117469 9.382448
WTR 9.329763 1.740019 1.680533
WTR 9.351240 2.329916 5.327172
WTR 9.516276 1.869423 9.833272
WTR 8.994131 5.819950 1.406482
POX 9.354689 5.740369 5.428273
WTR 8.934405 5.738499 8.648345
WTR 9.163603 9.296148 1.807770
POX 9.078057 9.595336 5.682421
WTR 9.405431 9.719292 9.246486
27
Lattice="11.20461838071637 0 0 0 11.20461838071637 0 0 0 11.20461838071637" Properties=species:S:1:pos:R:3 Step=22
POX 1.970907 1.230269 1.240451
POX 1.644932 2.036902 5.523682
WTR 1.849055 1.743069 8.913596
WTR 2.180831 6.022240 1.518236
WTR 1.635743 5.764287 5.579896
WTR 2.184175 5.888790 9.427353
POX 1.566095 9.161170 1.986882
WTR 2.173258 8.914655 5.311765
POX 1.887597 9.590577 9.825763
WTR 5.911876 1.996563 2.170192
POX 5.806150 1.481835 6.458872
WTR 5.468625 1.576895 9.706274
WTR 5.706522 5.633433 1.374507
WTR 5.939340 5.398229 5.327640
WTR 5.683753 5.006790 9.576733
WTR 5.732161 9.498361 1.512210
WTR 5.811887 9.072012 5.909386
WTR 5.814399 9.109900 9.383000
WTR 9.332095 1.734916 1.679554
WTR 9.356242 2.336099 5.308453
WTR 9.524312 1.867021 9.849592
WTR 8.983809 5.832602 1.381024
POX 9.360781 5.754561 5.406130
WTR 8.914122 5.745977 8.644672
WTR 9.159662 9.298378 1.797843
POX 9.068092 9.612745 5.690657
WTR 9.406387 9.742227 9.245967
27
Lattice="11.20461838071637 0 0 0 11.20461838071637 0 0 0 11.20461838071637" Properties=species:S:1:pos:R:3 Step=23
POX 1.975904 1.220193 1.204497
POX 1.633313 2.043446 5.519417
WTR 1.849900 1.736875 8.903267
WTR 2.199144 6.024463 1.498847
WTR 1.628453 5.768827 5.582204
WTR 2.195592 5.898365 9.431837
POX 1.543331 9.144517 2.002461
WTR 2.191013 8.900956 5.309233
POX 1.891169 9.604475 9.843551
WTR 5.930725 2.003182 2.182705
POX 5.816762 1.464353 6.492912
WTR 5.460952 1.559726 9.748117
WTR 5.706133 5.636099 1.359651
WTR 5.948265 5.383577 5.314882
WTR 5.683696 4.979407 9.581738
WTR 5.737524 9.508561 1.491019
WTR 5.809812 9.053505 5.924015
WTR 5.828905 9.102377 9.383418
WTR 9.334390 1.729629 1.680202
WTR 9.360662 2.341442 5.289738
WTR 9.532386 1.864800 9.864260
WTR 8.973789 5.845164 1.355623
POX 9.366985 5.768997 5.383383
WTR 8.893579 5.753515 8.643033
WTR 9.155702 9.300781 1.787838
POX 9.058613 9.630230 5.698751
WTR 9.407201 9.764918 9.245853
27
Lattice="11.20461838071637 0 0 0 11.20461838071637 0 0 0 11.20461838071637" Properties=species:S:1:pos:R:3 Step=24
POX 1.981074 1.211608 1.168394
POX 1.621865 2.049949 5.514905
WTR 1.850872 1.731193 8.893527
WTR 2.217956 6.024429 1.479542
WTR 1.621602 5.772699 5.584600
WTR 2.207092 5.907881 9.435865
POX 1.520151 9.127038 2.019525
WTR 2.208993 8.887950 5.307680
POX 1.894922 9.618326 9.859929
WTR 5.949486 2.009787 2.194969
POX 5.827432 1.446945 6.526248
WTR 5.453067 1.542410 9.791949
WTR 5.705394 5.639117 1.346325
WTR 5.956609 5.368894 5.302211
WTR 5.683568 4.951938 9.585271
WTR 5.742654 9.518763 1.470030
WTR 5.806221 9.034603 5.938643
WTR 5.843392 9.094906 9.383680
WTR 9.336647 1.724154 1.682579
WTR 9.364436 2.345993 5.271052
WTR 9.540502 1.862795 9.877163
WTR 8.964101 5.857618 1.330304
POX 9.373269 5.783649 5.360141
WTR 8.872827 5.761108 8.643161
WTR 9.151707 9.303363 1.777766
POX 9.049629 9.647771 5.706687
WTR 9.407878 9.787305 9.246159
27
Lattice="11.20461838071637 0 0 0 11.20461838071637 0 0 0 11.20461838071637" Properties=species:S:1:pos:R:3 Step=25
POX 1.986394 1.204324 1.132258
POX 1.610607 2.056408 5.510149
WTR 1.851972 1.726074 8.884316
WTR 2.237281 6.022135 1.460374
WTR 1.615226 5.775856 5.587093
WTR 2.218671 5.917335 9.439367
POX 1.496580 9.108978 2.037935
WTR 2.227223 8.875684 5.307165
POX 1.898858 9.632070 9.874937
WTR 5.968135 2.016380 2.206973
POX 5.838153 1.429621 6.558899
WTR 5.444973 1.524938 9.837592
WTR 5.704298 5.642511 1.334606
WTR 5.964376 5.354189 5.289638
WTR 5.683356 4.924378 9.587270
WTR 5.747542 9.528973 1.449286
WTR 5.801151 9.015315 5.953251
WTR 5.857852 9.087493 9.383764
WTR 9.338868 1.718481 1.686754
WTR 9.367501 2.349801 5.252408
WTR 9.548668 1.861045 9.888220
WTR 8.954771 5.869953 1.305084
POX 9.379601 5.798496 5.336503
WTR 8.851917 5.768760 8.644793
WTR 9.147654 9.306132 1.767632
POX 9.041136 9.665357 5.714452
WTR 9.408420 9.809334 9.246898
27
Lattice="11.20461838071637 0 0 0 11.20461838071637 0 0 0 11.20461838071637" Properties=species:S:1:pos:R:3 Step=26
POX 1.991843 1.198168 1.096209
POX 1.599557 2.062821 5.505152
WTR 1.853203 1.721571 8.875552
WTR 2.257127 6.017622 1.441397
WTR 1.609360 5.778257 5.589692
WTR 2.230328 5.926727 9.442268
POX 1.472644 9.090555 2.057530
WTR 2.245733 8.864195 5.307745
POX 1.902970 9.645638 9.888634
WTR 5.986655 2.022964 2.218713
POX 5.848923 1.412387 6.590901
WTR 5.436673 1.507297 9.884865
WTR 5.702845 5.646299 1.324536
WTR 5.971578 5.339466 5.277168
WTR 5.683050 4.896712 9.587703
WTR 5.752181 9.539204 1.428821
WTR 5.794661 8.995647 5.967822
WTR 5.872281 9.080136 9.383647
WTR 9.341061 1.712603 1.692760
WTR 9.369795 2.352923 5.233818
WTR 9.556893 1.859589 9.897392
WTR 8.945817 5.882162 1.279969
POX 9.385951 5.813519 5.312550
WTR 8.830891 5.776477 8.647682
WTR 9.143517 9.309096 1.757435
POX 9.033119 9.682981 5.722040
WTR 9.408829 9.830957 9.248080
27
Lattice="11.20461838071637 0 0 0 11.20461838071637 0 0 0 11.20461838071637" Properties=species:S:1:pos:R:3 Step=27
POX 1.997401 1.193001 1.060372
POX 1.588724 2.069187 5.499917
WTR 1.854565 1.717738 8.867129
WTR 2.277494 6.010973 1.422677
WTR 1.604035 5.779868 5.592408
WTR 2.242067 5.936062 9.444490
POX 1.448367 9.071950 2.078137
WTR 2.264563 8.853511 5.309474
POX 1.907252 9.658944 9.901092
WTR 6.005036 2.029548 2.230194
POX 5.859741 1.395240 6.622305
WTR 5.428169 1.489464 9.933591
WTR 5.701040 5.650496 1.316123
WTR 5.978234 5.324724 5.264799
WTR 5.682635 4.868920 9.586570
WTR 5.756565 9.549474 1.408667
WTR 5.786831 8.975603 5.982343
WTR 5.886684 9.072833 9.383305
WTR 9.343237 1.706510 1.700597
WTR 9.371263 2.355419 5.215284
WTR 9.565187 1.858469 9.904680
WTR 8.937254 5.894244 1.254956
POX 9.392290 5.828704 5.288349
WTR 8.809787 5.784269 8.651606
WTR 9.139267 9.312264 1.747173
POX 9.025555 9.700640 5.729446
WTR 9.409108 9.852129 9.249712
27
Lattice="11.20461838071637 0 0 0 11.20461838071637 0 0 0 11.20461838071637" Properties=species:S:1:pos:R:3 Step=28
POX 2.003053 1.188719 1.024874
POX 1.578116 2.075509 5.494446
WTR 1.856057 1.714629 8.858921
WTR 2.298373 6.002309 1.404287
WTR 1.599278 5.780665 5.595252
WTR 2.253892 5.945347 9.445950
POX 1.423770 9.053305 2.099583
WTR 2.283754 8.843648 5.312405
POX 1.911695 9.671886 9.912377
WTR 6.023271 2.036141 2.241430
POX 5.870609 1.378172 6.653176
WTR 5.419463 1.471413 9.983599
WTR 5.698893 5.655107 1.309341
WTR 5.984367 5.309959 5.252527
WTR 5.682098 4.840980 9.583900
WTR 5.760690 9.559806 1.388848
WTR 5.777755 8.955187 5.996806
WTR 5.901069 9.065577 9.382713
WTR 9.345414 1.700191 1.710223
WTR 9.371849 2.357349 5.196807
WTR 9.573561 1.857729 9.910128
WTR 8.929091 5.906202 1.230035
POX 9.398593 5.844041 5.263952
WTR 8.788634 5.792151 8.656365
WTR 9.134867 9.315647 1.736836
POX 9.018413 9.718338 5.736670
WTR 9.409258 9.872809 9.251801
27
Lattice="11.20461838071637 0 0 0 11.20461838071637 0 0 0 11.20461838071637" Properties=species:S:1:pos:R:3 Step=29
POX 2.008787 1.185266 0.989851
POX 1.567737 2.081789 5.488739
WTR 1.857679 1.712301 8.850780
WTR 2.319741 5.991780 1.386309
WTR 1.595116 5.780630 5.598235
WTR 2.265814 5.954593 9.446560
POX 1.398876 9.034724 2.121699
WTR 2.303352 8.834615 5.316587
POX 1.916289 9.684342 9.922548
WTR 6.041359 2.042758 2.252440
POX 5.881534 1.361170 6.683591
WTR 5.410557 1.453115 10.034732
WTR 5.696421 5.660130 1.304133
WTR 5.990005 5.295162 5.240344
WTR 5.681422 4.812866 9.579753
WTR 5.764554 9.570226 1.369387
WTR 5.767541 8.934401 6.011199
WTR 5.915450 9.058359 9.381848
WTR 9.347612 1.693636 1.721564
WTR 9.371501 2.358774 5.178385
WTR 9.582025 1.857418 9.913811
WTR 8.921334 5.918043 1.205189
POX 9.404835 5.859527 5.239392
WTR 8.767454 5.800142 8.661789
WTR 9.130280 9.319254 1.726412
POX 9.011656 9.736080 5.743715
WTR 9.409283 9.892956 9.254349
27
Lattice="11.20461838071637 0 0 0 11.20461838071637 0 0 0 11.20461838071637" Properties=species:S:1:pos:R:3 Step=30
POX 2.014597 1.182633 0.955449
POX 1.557587 2.088033 5.482796
WTR 1.859430 1.710810 8.842537
WTR 2.341567 5.979555 1.368835
WTR 1.591574 5.779754 5.601371
WTR 2.277843 5.963814 9.446229
POX 1.373703 9.016273 2.144331
WTR 2.323398 8.826414 5.322061
POX 1.921021 9.696171 9.931641
WTR 6.059300 2.049414 2.263253
POX 5.892520 1.344218 6.713628
WTR 5.401450 1.434537 10.086847
WTR 5.693648 5.665558 1.300418
WTR 5.995179 5.280322 5.228238
WTR 5.680590 4.784553 9.574208
WTR 5.768152 9.580763 1.350303
WTR 5.756304 8.913246 6.025517
WTR 5.929846 9.051167 9.380683
WTR 9.349860 1.686833 1.734516
WTR 9.370169 2.359753 5.160012
WTR 9.590590 1.857584 9.915839
WTR 8.913983 5.929778 1.180397
POX 9.410994 5.875162 5.214692
WTR 8.746264 5.808263 8.667732
WTR 9.125464 9.323099 1.715883
POX 9.005244 9.753877 5.750586
WTR 9.409180 9.912532 9.257358
27
Lattice="11.20461838071637 0 0 0 11.20461838071637 0 0 0 11.20461838071637" Properties=species:S:1:pos:R:3 Step=31
POX 2.020481 1.180856 0.921835
POX 1.547663 2.094246 5.476614
WTR 1.861308 1.710214 8.834005
WTR 2.363806 5.965812 1.351959
WTR 1.588671 5.778035 5.604670
WTR 2.289993 5.973028 9.444866
POX 1.348264 8.997986 2.167345
WTR 2.343934 8.819037 5.328860
POX 1.925880 9.707206 9.939666