54
Lattice="14.632942154092062 0 0 0 14.632942154092062 0 0 0 14.632942154092062" Properties=species:S:1:pos:R:3 Step=0
POX 0.868135 2.991366 1.267973
POX 1.528627 3.080540 4.653493
POX 3.788960 1.641497 7.117966
POX 1.588476 4.047458 8.247202
POX 2.984498 1.806490 10.702589
POX 1.969556 4.319795 12.837804
POX 2.669184 7.128934 4.041850
POX 3.910499 6.375883 0.911674
POX 3.766936 7.109411 8.271412
POX 3.651513 10.215710 6.773569
POX 0.596729 7.673565 0.001142
POX 2.157790 7.723659 11.557312
POX 0.385709 11.204478 0.749712
POX 2.622919 11.177480 3.376518
POX 1.257580 14.050452 5.383631
POX 1.779893 13.193796 8.685037
POX 2.044031 12.030178 12.153829
POX 3.582877 13.102868 0.416960
POX 5.827061 0.918320 1.810317
POX 8.032045 3.557028 2.095304
POX 7.609913 2.166300 5.448078
POX 7.890092 14.475639 7.983490
POX 6.690767 3.591827 13.293368
POX 6.415629 2.687660 9.974824
POX 7.514972 7.109441 1.770996
POX 5.751786 10.075436 1.770962
POX 7.990802 7.106767 7.726455
POX 6.107028 8.195687 5.048471
POX 6.754628 7.410152 12.794616
POX 8.947443 5.378041 11.071816
POX 7.759515 12.869458 3.509180
POX 9.416333 9.852035 3.272409
POX 6.402262 11.229855 9.285757
POX 8.599153 10.997457 6.635170
POX 5.549189 10.914459 12.861242
POX 7.983027 13.313663 13.336848
POX 11.530953 3.522541 1.391189
POX 10.528179 0.565362 2.859345
POX 12.966953 2.154328 5.939495
POX 12.062236 1.769738 9.246991
POX 9.919504 1.767782 12.417641
POX 13.196792 2.802036 12.726913
POX 13.680924 5.765683 3.229641
POX 13.136644 9.172110 3.152415
POX 10.380626 4.375074 7.263624
POX 11.776516 7.340059 6.183668
POX 12.893435 6.511843 11.896255
POX 10.934345 8.252374 9.651601
POX 11.884186 12.962119 0.236332
POX 13.014172 12.765190 3.490607
POX 13.188423 10.653560 6.760459
POX 11.423099 13.616531 6.862349
POX 13.977869 10.008351 10.744014
POX 12.866074 13.260739 11.047057
54
Lattice="14.632942154092062 0 0 0 14.632942154092062 0 0 0 14.632942154092062" Properties=species:S:1:pos:R:3 Step=1
POX 0.867919 3.012982 1.294511
POX 1.528412 3.102155 4.680031
POX 3.783348 1.616519 7.138888
POX 1.582864 4.022480 8.268123
POX 3.019562 1.794152 10.707779
POX 2.004621 4.307457 12.842994
POX 2.690697 7.159115 4.047772
POX 3.932012 6.406064 0.917596
POX 3.789710 7.084676 8.282764
POX 3.674287 10.190975 6.784921
POX 0.609489 7.667773 0.031716
POX 2.170549 7.717867 11.587885
POX 0.354680 11.221416 0.750729
POX 2.591890 11.194418 3.377535
POX 1.225560 14.064163 5.370207
POX 1.747874 13.207507 8.671613
POX 2.075300 12.052072 12.154351
POX 3.614147 13.124762 0.417482
POX 5.801866 0.897326 1.793911
POX 8.006850 3.536033 2.078898
POX 7.594692 2.139310 5.425974
POX 7.874871 14.448649 7.961386
POX 6.681413 3.571670 13.260638
POX 6.406275 2.667502 9.942094
POX 7.505646 7.140659 1.749151
POX 5.742459 10.106654 1.749117
POX 7.960111 7.121804 7.711559
POX 6.076337 8.210724 5.033575
POX 6.766783 7.429636 12.819462
POX 8.959598 5.397525 11.096662
POX 7.777927 12.848213 3.529262
POX 9.434745 9.830789 3.292491
POX 6.368484 11.227762 9.271614
POX 8.565375 10.995364 6.621027
POX 5.518958 10.932937 12.851236
POX 7.952796 13.332141 13.326842
POX 11.551150 3.496915 1.402117
POX 10.548375 0.539736 2.870274
POX 12.980616 2.158110 5.900359
POX 12.075899 1.773521 9.207855
POX 9.917717 1.746630 12.383658
POX 13.195006 2.780885 12.692930
POX 13.714932 5.775187 3.242950
POX 13.170652 9.181614 3.165723
POX 10.366825 4.399383 7.282738
POX 11.762714 7.364368 6.202782
POX 12.929614 6.512727 11.878753
POX 10.970524 8.253257 9.634099
POX 11.851154 12.972859 0.239018
POX 12.981140 12.775930 3.493293
POX 13.209953 10.649453 6.786857
POX 11.444629 13.612425 6.888747
POX 13.969638 9.980781 10.760791
POX 12.857843 13.233169 11.063834
54
Lattice="14.632942154092062 0 0 0 14.632942154092062 0 0 0 14.632942154092062" Properties=species:S:1:pos:R:3 Step=2
POX 0.868134 3.035783 1.321246
POX 1.528627 3.124957 4.706766
POX 3.777929 1.591353 7.159740
POX 1.577445 3.997314 8.288975
POX 3.054508 1.780685 10.713467
POX 2.039566 4.293991 12.848682
POX 2.712105 7.189622 4.053252
POX 3.953421 6.436572 0.923076
POX 3.812226 7.060828 8.294625
POX 3.696803 10.167128 6.796783
POX 0.622032 7.661846 0.063137
POX 2.183093 7.711939 11.619306
POX 0.323744 11.238440 0.751595
POX 2.560954 11.211441 3.378402
POX 1.192800 14.078296 5.356736
POX 1.715114 13.221640 8.658141
POX 2.105182 12.073478 12.154349
POX 3.644029 13.146168 0.417480
POX 5.777538 0.877255 1.777971
POX 7.982523 3.515963 2.062959
POX 7.579487 2.111572 5.404151
POX 7.859666 14.420911 7.939564
POX 6.672523 3.551502 13.227534
POX 6.397384 2.647335 9.908991
POX 7.496463 7.171743 1.727950
POX 5.733277 10.137738 1.727915
POX 7.930220 7.137654 7.696218
POX 6.046446 8.226574 5.018234
POX 6.779537 7.448888 12.842934
POX 8.972352 5.416777 11.120134
POX 7.796547 12.826979 3.549155
POX 9.453366 9.809555 3.312384
POX 6.334442 11.224620 9.258145
POX 8.531333 10.992221 6.607558
POX 5.488621 10.951241 12.840878
POX 7.922459 13.350445 13.316484
POX 11.569769 3.473965 1.412618
POX 10.566994 0.516786 2.880774
POX 12.993487 2.161717 5.861269
POX 12.088770 1.777127 9.168765
POX 9.916136 1.725423 12.349329
POX 13.193424 2.759677 12.658601
POX 13.750529 5.783769 3.257450
POX 13.206249 9.190197 3.180224
POX 10.351818 4.423029 7.300820
POX 11.747707 7.388014 6.220864
POX 12.965591 6.513237 11.861337
POX 11.006501 8.253767 9.616683
POX 11.818574 12.982350 0.241785
POX 12.948560 12.785421 3.496060
POX 13.231760 10.645306 6.813389
POX 11.466436 13.608277 6.915279
POX 13.962039 9.953649 10.777682
POX 12.850244 13.206037 11.080725
54
Lattice="14.632942154092062 0 0 0 14.632942154092062 0 0 0 14.632942154092062" Properties=species:S:1:pos:R:3 Step=3
POX 0.869515 3.060254 1.348128
POX 1.530008 3.149427 4.733648
POX 3.772565 1.565670 7.180633
POX 1.572080 3.971630 8.309869
POX 3.089235 1.765525 10.720356
POX 2.074293 4.278831 12.855570
POX 2.733163 7.220752 4.058199
POX 3.974479 6.467702 0.928023
POX 3.834118 7.037858 8.307373
POX 3.718695 10.144157 6.809531
POX 0.634494 7.655896 0.095788
POX 2.195555 7.705990 11.651957
POX 0.292914 11.255786 0.752014
POX 2.530125 11.228788 3.378820
POX 1.158817 14.093103 5.343174
POX 1.681130 13.236447 8.644579
POX 2.132207 12.093724 12.153247
POX 3.671053 13.166414 0.416378
POX 5.755033 0.859095 1.762733
POX 7.960017 3.497803 2.047721
POX 7.564084 2.082727 5.382319
POX 7.844262 14.392065 7.917731
POX 6.664520 3.531204 13.193454
POX 6.389381 2.627037 9.874910
POX 7.487512 7.202775 1.707876
POX 5.724326 10.168770 1.707841
POX 7.901768 7.154414 7.679993
POX 6.017995 8.243334 5.002009
POX 6.792939 7.468280 12.864828
POX 8.985753 5.436169 11.142029
POX 7.815634 12.805728 3.568723
POX 9.472452 9.788305 3.331953
POX 6.299765 11.220154 9.245666
POX 8.496657 10.987755 6.595079
POX 5.458194 10.969282 12.829840
POX 7.892033 13.368486 13.305446
POX 11.585510 3.455007 1.422876
POX 10.582736 0.497828 2.891032
POX 13.005065 2.165117 5.822133
POX 12.100348 1.780527 9.129628
POX 9.914873 1.703984 12.314173
POX 13.192161 2.738239 12.623446
POX 13.787941 5.791437 3.273537
POX 13.243661 9.197864 3.196311
POX 10.335621 4.446030 7.317398
POX 11.731511 7.411015 6.237442
POX 13.001309 6.513025 11.844165
POX 11.042219 8.253556 9.599512
POX 11.787229 12.989183 0.244822
POX 12.917214 12.792254 3.499097
POX 13.254202 10.641021 6.840276
POX 11.488878 13.603992 6.942166
POX 13.955517 9.927200 10.795037
POX 12.843721 13.179588 11.098079
54
Lattice="14.632942154092062 0 0 0 14.632942154092062 0 0 0 14.632942154092062" Properties=species:S:1:pos:R:3 Step=4
POX 0.872879 3.086864 1.375142
POX 1.533372 3.176037 4.760663
POX 3.767118 1.539119 7.201670
POX 1.566634 3.945080 8.330905
POX 3.123577 1.748104 10.729175
POX 2.108636 4.261409 12.864390
POX 2.753380 7.252735 4.062441
POX 3.994696 6.499685 0.932265
POX 3.854850 7.015836 8.321471
POX 3.739427 10.122135 6.823628
POX 0.646990 7.650025 0.130082
POX 2.208050 7.700118 11.686251
POX 0.262166 11.273662 0.751687
POX 2.499377 11.246663 3.378494
POX 1.123121 14.108851 5.329477
POX 1.645435 13.252195 8.630883
POX 2.154390 12.111866 12.150174
POX 3.693236 13.184556 0.413305
POX 5.735609 0.844235 1.748714
POX 7.940593 3.482943 2.033702
POX 7.548259 2.052434 5.360197
POX 7.828438 14.361772 7.895609
POX 6.657937 3.510665 13.157746
POX 6.382798 2.606498 9.839202
POX 7.478964 7.233908 1.689576
POX 5.715778 10.199903 1.689541
POX 7.875689 7.172149 7.662350
POX 5.991916 8.261069 4.984366
POX 6.807031 7.488196 12.884763
POX 8.999846 5.456086 11.161963
POX 7.835466 12.784474 3.587742
POX 9.492285 9.767051 3.350972
POX 6.264144 11.213978 9.234652
POX 8.461035 10.981579 6.584066
POX 5.427872 10.986877 12.817818
POX 7.861711 13.386081 13.293423
POX 11.596759 3.441784 1.432949
POX 10.593984 0.484605 2.901106
POX 13.014832 2.168354 5.782845
POX 12.110115 1.783764 9.090341
POX 9.914022 1.682121 12.277689
POX 13.191311 2.716375 12.586961
POX 13.827431 5.798213 3.291671
POX 13.283151 9.204640 3.214445
POX 10.318202 4.468393 7.331813
POX 11.714092 7.433379 6.251856
POX 13.036631 6.511693 11.827599
POX 11.077540 8.252224 9.582945
POX 11.758203 12.991561 0.248398
POX 12.888188 12.794632 3.502672
POX 13.277641 10.636409 6.867699
POX 11.512317 13.599380 6.969590
POX 13.950580 9.901724 10.813221
POX 12.838785 13.154112 11.116264
54
Lattice="14.632942154092062 0 0 0 14.632942154092062 0 0 0 14.632942154092062" Properties=species:S:1:pos:R:3 Step=5
POX 0.879076 3.115952 1.402223
POX 1.539569 3.205126 4.787743
POX 3.761473 1.511421 7.222876
POX 1.560989 3.917382 8.352112
POX 3.157202 1.727913 10.740645
POX 2.142261 4.241219 12.875860
POX 2.771906 7.285609 4.065704
POX 4.013222 6.532559 0.935529
POX 3.873645 6.994957 8.337391
POX 3.758223 10.101257 6.839548
POX 0.659569 7.644335 0.166349
POX 2.220629 7.694429 11.722518
POX 0.231587 11.292166 0.750322
POX 2.468797 11.265168 3.377128
POX 1.085347 14.125762 5.315662
POX 1.607661 13.269107 8.617068
POX 2.169149 12.126681 12.144000
POX 3.707996 13.199371 0.407130
POX 5.720859 0.834478 1.736719
POX 7.925844 3.473186 2.021707
POX 7.531836 2.020473 5.337590
POX 7.812015 14.329812 7.873003
POX 6.653428 3.489860 13.119842
POX 6.378289 2.585693 9.801299
POX 7.471112 7.265234 1.673933
POX 5.707926 10.231229 1.673899
POX 7.853340 7.190887 7.642746
POX 5.969566 8.279807 4.964762
POX 6.821797 7.508962 12.902087
POX 9.014612 5.476851 11.179287
POX 7.856272 12.763370 3.605818
POX 9.513090 9.745947 3.369047
POX 6.227476 11.205607 9.225797
POX 8.424367 10.973208 6.575211
POX 5.398157 11.003674 12.804587
POX 7.831995 13.402878 13.280193
POX 11.601774 3.436290 1.442769
POX 10.599000 0.479110 2.910926
POX 13.022240 2.171580 5.743431
POX 12.117523 1.786990 9.050927
POX 9.913669 1.659700 12.239479
POX 13.190957 2.693954 12.548751
POX 13.869160 5.804117 3.312309
POX 13.324880 9.210544 3.235083
POX 10.299559 4.490018 7.343118
POX 11.695448 7.455003 6.263162
POX 13.071198 6.508783 11.812284
POX 11.112108 8.249313 9.567630
POX 11.732712 12.987540 0.252827
POX 12.862698 12.790611 3.507101
POX 13.302361 10.631176 6.895688
POX 11.537037 13.594147 6.997578
POX 13.947837 9.877684 10.832566
POX 12.836042 13.130072 11.135609
54
Lattice="14.632942154092062 0 0 0 14.632942154092062 0 0 0 14.632942154092062" Properties=species:S:1:pos:R:3 Step=6
POX 0.888855 3.147499 1.429124
POX 1.549348 3.236673 4.814644
POX 3.755562 1.482521 7.244107
POX 1.555077 3.888481 8.373342
POX 3.189487 1.704672 10.755347
POX 2.174545 4.217978 12.890561
POX 2.787454 7.319024 4.067608
POX 4.028769 6.565974 0.937432
POX 3.889428 6.975572 8.355432
POX 3.774005 10.081872 6.857590
POX 0.672131 7.638967 0.204610
POX 2.233192 7.689060 11.760779
POX 0.201577 11.311165 0.747658
POX 2.438788 11.284167 3.374464
POX 1.045494 14.143907 5.301881
POX 1.567807 13.287252 8.603286
POX 2.173622 12.136936 12.133607
POX 3.712468 13.209626 0.396737
POX 5.712448 0.831702 1.727678
POX 7.917433 3.470409 2.012665
POX 7.514775 1.986947 5.314519
POX 7.794954 14.296285 7.849931
POX 6.651726 3.468959 13.079507
POX 6.376588 2.564792 9.760964
POX 7.464397 7.296597 1.662075
POX 5.701211 10.262591 1.662041
POX 7.836519 7.210563 7.620817
POX 5.952745 8.299483 4.942833
POX 6.837074 7.530710 12.915835
POX 9.029888 5.498599 11.193035
POX 7.878107 12.742835 3.622314
POX 9.534926 9.725412 3.385544
POX 6.190113 11.194532 9.220041
POX 8.387005 10.962133 6.569454
POX 5.369978 11.019080 12.790113
POX 7.803817 13.418284 13.265719
POX 11.599216 3.440222 1.452176
POX 10.596441 0.483043 2.920332
POX 13.026757 2.175097 5.704259
POX 12.122040 1.790507 9.011755
POX 9.913897 1.636780 12.199474
POX 13.191185 2.671035 12.508747
POX 13.912922 5.809146 3.335754
POX 13.368642 9.215573 3.258528
POX 10.279846 4.510579 7.350051
POX 11.675736 7.475565 6.270095
POX 13.104282 6.503803 11.799219
POX 11.145192 8.244334 9.554566
POX 11.711677 12.975658 0.258355
POX 12.841663 12.778729 3.512629
POX 13.328423 10.624930 6.923948
POX 11.563099 13.587902 7.025838
POX 13.947974 9.855827 10.853255
POX 12.836179 13.108214 11.156298
54
Lattice="14.632942154092062 0 0 0 14.632942154092062 0 0 0 14.632942154092062" Properties=species:S:1:pos:R:3 Step=7
POX 0.902664 3.180908 1.455356
POX 1.563157 3.270081 4.840876
POX 3.749387 1.452717 7.264990
POX 1.548902 3.858677 8.394225
POX 3.219538 1.678509 10.773534
POX 2.204596 4.191814 12.908749
POX 2.798465 7.352150 4.067733
POX 4.039781 6.599099 0.937557
POX 3.900937 6.958102 8.375480
POX 3.785514 10.064401 6.877637
POX 0.684376 7.634101 0.244395
POX 2.245437 7.684195 11.800565
POX 0.172978 11.330189 0.743528
POX 2.410189 11.303190 3.370334
POX 1.004122 14.163099 5.288464
POX 1.526435 13.306444 8.589870
POX 2.165587 12.142017 12.118426
POX 3.704433 13.214707 0.381557
POX 5.711433 0.837071 1.722234
POX 7.916417 3.475778 2.007221
POX 7.497247 1.952438 5.291305
POX 7.777426 14.261776 7.826717
POX 6.653487 3.448380 13.037064
POX 6.378348 2.544213 9.718520
POX 7.459340 7.327475 1.655171
POX 5.696154 10.293470 1.655137
POX 7.827206 7.230994 7.596601
POX 5.943432 8.319914 4.918617
POX 6.852502 7.553276 12.924881
POX 9.045317 5.521165 11.202081
POX 7.900769 12.723593 3.636409
POX 9.557587 9.706170 3.399638
POX 6.153031 11.180369 9.218450
POX 8.349922 10.947970 6.567863
POX 5.344610 11.032313 12.774631
POX 7.778448 13.431517 13.250237
POX 11.588861 3.454174 1.460997
POX 10.586086 0.496995 2.929153
POX 13.027999 2.179380 5.666154
POX 12.123282 1.794791 8.973650
POX 9.914775 1.613700 12.158117
POX 13.192063 2.647954 12.467390
POX 13.957908 5.813288 3.361986
POX 13.413628 9.219716 3.284760
POX 10.259465 4.529513 7.351218
POX 11.655355 7.494498 6.271262
POX 13.134787 6.496335 11.789650
POX 11.175697 8.236865 9.544996
POX 11.695119 12.955757 0.265031
POX 12.825105 12.758828 3.519305
POX 13.355530 10.617221 6.951766
POX 11.590206 13.580193 7.053656
POX 13.951622 9.837163 10.875193
POX 12.839827 13.089551 11.178235
54
Lattice="14.632942154092062 0 0 0 14.632942154092062 0 0 0 14.632942154092062" Properties=species:S:1:pos:R:3 Step=8
POX 0.920512 3.215052 1.480325
POX 1.581005 3.304226 4.865845
POX 3.743010 1.422577 7.285040
POX 1.542525 3.828538 8.414275
POX 3.246500 1.649986 10.795013
POX 2.231558 4.163291 12.930227
POX 2.803634 7.383906 4.065769
POX 4.044949 6.630855 0.935594
POX 3.907058 6.942797 8.396875
POX 3.791635 10.049096 6.899032
POX 0.695834 7.629937 0.284842
POX 2.256894 7.680030 11.841011
POX 0.146936 11.348497 0.737913
POX 2.384147 11.321498 3.364720
POX 0.962242 14.182924 5.275845
POX 1.484556 13.326268 8.577251
POX 2.144518 12.142467 12.098869
POX 3.683365 13.215157 0.362000
POX 5.717603 0.850310 1.720330
POX 7.922587 3.489017 2.005317
POX 7.479578 1.917906 5.268490
POX 7.759756 14.227244 7.803902
POX 6.659058 3.428674 12.993337
POX 6.383919 2.524507 9.674794
POX 7.456371 7.357119 1.654015
POX 5.693185 10.323114 1.653981
POX 7.826863 7.251967 7.570612
POX 5.943089 8.340887 4.892628
POX 6.867614 7.576240 12.928309
POX 9.060428 5.544129 11.205509
POX 7.923864 12.706497 3.647349
POX 9.580682 9.689074 3.410578
POX 6.117664 11.162992 9.221927
POX 8.314555 10.930594 6.571340
POX 5.323229 11.042638 12.758626
POX 7.757068 13.441842 13.234231
POX 11.571914 3.477199 1.469141
POX 10.569139 0.520020 2.937297
POX 13.025878 2.185065 5.630193
POX 12.121161 1.800476 8.937688
POX 9.916342 1.590988 12.116244
POX 13.193630 2.625243 12.425517
POX 14.002857 5.816569 3.390647
POX 13.458577 9.222996 3.313421
POX 10.238983 4.546179 7.345516
POX 11.634872 7.511164 6.265560
POX 13.161579 6.486129 11.784701
POX 11.202489 8.226659 9.540047
POX 11.681831 12.929344 0.272647
POX 12.811817 12.732415 3.526921
POX 13.383108 10.607585 6.978160
POX 11.617784 13.570557 7.080050
POX 13.959166 9.822687 10.898028
POX 12.847371 13.075075 11.201071
54
Lattice="14.632942154092062 0 0 0 14.632942154092062 0 0 0 14.632942154092062" Properties=species:S:1:pos:R:3 Step=9
POX 0.942053 3.248613 1.503606
POX 1.602546 3.337787 4.889127
POX 3.736498 1.392670 7.303882
POX 1.536013 3.798631 8.433117
POX 3.269945 1.619878 10.819209
POX 2.255003 4.133184 12.954424
POX 2.802500 7.413403 4.061646
POX 4.043816 6.660353 0.931470
POX 3.907129 6.929514 8.418543
POX 3.791707 10.035813 6.920700
POX 0.705980 7.626634 0.325055
POX 2.267040 7.676728 11.881224
POX 0.124583 11.365294 0.730940
POX 2.361793 11.338296 3.357747
POX 0.920911 14.202897 5.264403
POX 1.443224 13.346241 8.565809
POX 2.111780 12.139810 12.076177
POX 3.650626 13.212500 0.339308
POX 5.729515 0.869825 1.721209
POX 7.934499 3.508532 2.006196
POX 7.462088 1.884355 5.246600
POX 7.742267 14.193694 7.782013
POX 6.668377 3.410297 12.949291
POX 6.393239 2.506129 9.630748
POX 7.455658 7.384858 1.658666
POX 5.692472 10.350853 1.658632
POX 7.835827 7.273359 7.543672
POX 5.952053 8.362279 4.865687
POX 6.882009 7.599118 12.925768
POX 9.074823 5.567007 11.202968
POX 7.947035 12.692233 3.654765
POX 9.603853 9.674810 3.417994
POX 6.085476 11.142548 9.230928
POX 8.282367 10.910150 6.580341
POX 5.306401 11.049643 12.742680
POX 7.740239 13.448847 13.218286
POX 11.550523 3.507284 1.476626
POX 10.547748 0.550104 2.944782
POX 13.020624 2.192878 5.597276
POX 12.115906 1.808289 8.904771
POX 9.918611 1.569136 12.074707
POX 13.195899 2.603391 12.383980
POX 14.046486 5.819086 3.421230
POX 13.502206 9.225514 3.344004
POX 10.218920 4.560125 7.332517
POX 11.614810 7.525111 6.252561
POX 13.183937 6.473135 11.784958
POX 11.224847 8.213665 9.540305
POX 11.669682 12.899016 0.280854
POX 12.799668 12.702087 3.535129
POX 13.410569 10.595590 7.002228
POX 11.645245 13.558561 7.104118
POX 13.970627 9.813027 10.921325
POX 12.858832 13.065414 11.224368
54
Lattice="14.632942154092062 0 0 0 14.632942154092062 0 0 0 14.632942154092062" Properties=species:S:1:pos:R:3 Step=10
POX 0.966816 3.280391 1.525104
POX 1.627309 3.369564 4.910625
POX 3.729883 1.363352 7.321379
POX 1.529398 3.769312 8.450614
POX 3.290008 1.588920 10.845355
POX 2.275066 4.102225 12.980569
POX 2.795693 7.440228 4.055546
POX 4.037009 6.687178 0.925370
POX 3.900978 6.917740 8.439274
POX 3.785556 10.024039 6.941432
POX 0.714294 7.624304 0.364409
POX 2.275354 7.674398 11.920578
POX 0.106805 11.379916 0.722828
POX 2.344015 11.352918 3.349634
POX 0.880895 14.222617 5.254365
POX 1.403208 13.365961 8.555771
POX 2.069854 12.135805 12.051843
POX 3.608701 13.208495 0.314974
POX 5.745161 0.893550 1.723837
POX 7.950145 3.532257 2.008824
POX 7.444968 1.852555 5.225986
POX 7.725147 14.161894 7.761398
POX 6.681052 3.393475 12.905702
POX 6.405913 2.489308 9.587159
POX 7.457067 7.410287 1.668389
POX 5.693881 10.376281 1.668355
POX 7.853220 7.295167 7.516671
POX 5.969446 8.384086 4.838686
POX 6.895468 7.621521 12.917532
POX 9.088283 5.589410 11.194732
POX 7.970121 12.681150 3.658800
POX 9.626940 9.663727 3.422029
POX 6.057616 11.119379 9.245336
POX 8.254507 10.886980 6.594749
POX 5.293908 11.053331 12.727375
POX 7.727746 13.452535 13.202981
POX 11.526968 3.542257 1.483521
POX 10.524193 0.585078 2.951678
POX 13.012654 2.203519 5.567856
POX 12.107937 1.818930 8.875352
POX 9.921580 1.548438 12.034080
POX 13.198869 2.582693 12.343352
POX 14.087826 5.820999 3.453297
POX 13.543546 9.227427 3.376071
POX 10.199609 4.571201 7.312534
POX 11.595498 7.536186 6.232577
POX 13.201765 6.457469 11.790302
POX 11.242675 8.197999 9.545648
POX 11.656296 12.867489 0.289322
POX 12.786282 12.670560 3.543596
POX 13.437546 10.580887 7.023403
POX 11.672222 13.543858 7.125293
POX 13.985690 9.808285 10.944716
POX 12.873895 13.060673 11.247759
54
Lattice="14.632942154092062 0 0 0 14.632942154092062 0 0 0 14.632942154092062" Properties=species:S:1:pos:R:3 Step=11
POX 0.994387 3.309441 1.545053
POX 1.654880 3.398615 4.930573
POX 3.723157 1.334731 7.337616
POX 1.522673 3.740692 8.466851
POX 3.307256 1.557671 10.872612
POX 2.292314 4.070976 13.007827
POX 2.784740 7.464416 4.047829
POX 4.026056 6.711365 0.917653
POX 3.888792 6.906795 8.457995
POX 3.773370 10.013094 6.960153
POX 0.720242 7.623025 0.402600
POX 2.281303 7.673118 11.958769
POX 0.094170 11.391910 0.713828
POX 2.331380 11.364911 3.340634
POX 0.842578 14.241800 5.245800
POX 1.364892 13.385145 8.547206
POX 2.021426 12.131861 12.027125
POX 3.560272 13.204551 0.290256
POX 5.762617 0.919703 1.727313
POX 7.967601 3.558411 2.012300
POX 7.428261 1.822975 5.206795
POX 7.708440 14.132314 7.742207
POX 6.696538 3.378225 12.863048
POX 6.421399 2.474058 9.544504
POX 7.460248 7.433254 1.681861
POX 5.697062 10.399249 1.681826
POX 7.877336 7.317421 7.490462
POX 5.993562 8.406341 4.812478
POX 6.907940 7.643195 12.904307
POX 9.100755 5.611084 11.181507
POX 7.993181 12.673282 3.660023
POX 9.649999 9.655859 3.423253
POX 6.034840 11.093925 9.264488
POX 8.231732 10.861527 6.613901
POX 5.284958 11.054007 12.713290
POX 7.718796 13.453211 13.188896
POX 11.503160 3.580408 1.489898
POX 10.500385 0.623229 2.958054
POX 13.002401 2.217544 5.541929
POX 12.097684 1.832955 8.849424
POX 9.925257 1.528978 11.994607
POX 13.202546 2.563233 12.303880
POX 14.126272 5.822484 3.486558
POX 13.581992 9.228911 3.409332
POX 10.181184 4.579491 7.286414
POX 11.577073 7.544476 6.206457
POX 13.215482 6.439368 11.800040
POX 11.256391 8.179898 9.555386
POX 11.639598 12.836949 0.297818
POX 12.769583 12.640020 3.552092
POX 13.463931 10.563272 7.041514
POX 11.698607 13.526244 7.143404
POX 14.003789 9.808100 10.967941
POX 12.891994 13.060487 11.270984
54
Lattice="14.632942154092062 0 0 0 14.632942154092062 0 0 0 14.632942154092062" Properties=species:S:1:pos:R:3 Step=12
POX 1.024494 3.335078 1.563960
POX 1.684987 3.424251 4.949480
POX 3.716284 1.306734 7.352824
POX 1.515799 3.712695 8.482060
POX 3.322483 1.526489 10.900148
POX 2.307541 4.039795 13.035362
POX 2.771665 7.486280 4.038911
POX 4.012981 6.733230 0.908735
POX 3.870967 6.896040 8.473955
POX 3.755545 10.002340 6.976112
POX 0.723245 7.622870 0.439579
POX 2.284305 7.672964 11.995748
POX 0.086873 11.401060 0.704185
POX 2.324084 11.374061 3.330992
POX 0.806012 14.260261 5.238661
POX 1.328326 13.403605 8.540067
POX 1.968876 12.128927 12.002881
POX 3.507723 13.201617 0.266012
POX 5.780295 0.947079 1.731033
POX 7.985279 3.585787 2.016021
POX 7.411893 1.795840 5.189024
POX 7.692072 14.105178 7.724436
POX 6.714295 3.364437 12.821539
POX 6.439156 2.460270 9.502996
POX 7.464789 7.453766 1.697443
POX 5.701603 10.419761 1.697409
POX 7.906153 7.340092 7.465875
POX 6.022379 8.429012 4.787891
POX 6.919468 7.663973 12.886973
POX 9.112283 5.631863 11.164174
POX 8.016448 12.668471 3.659230
POX 9.673266 9.651048 3.422459
POX 6.017562 11.066679 9.287254
POX 8.214453 10.834281 6.636667
POX 5.278496 11.052127 12.701065
POX 7.712334 13.451331 13.176671
POX 11.480560 3.620649 1.495797
POX 10.477785 0.663470 2.963954
POX 12.990206 2.235289 5.519121
POX 12.085489 1.850700 8.826617
POX 9.929668 1.510681 11.956286
POX 13.206957 2.544936 12.265558
POX 14.161490 5.823697 3.520860
POX 13.617210 9.230124 3.443634
POX 10.163656 4.585186 7.255221
POX 11.559546 7.550171 6.175264
POX 13.225808 6.419155 11.813180
POX 11.266718 8.159685 9.568527
POX 11.618061 12.808866 0.306219
POX 12.748047 12.611937 3.560494
POX 13.489830 10.542723 7.056721
POX 11.724506 13.505694 7.158611
POX 14.024166 9.811780 10.990816
POX 12.912371 13.064168 11.293859
54
Lattice="14.632942154092062 0 0 0 14.632942154092062 0 0 0 14.632942154092062" Properties=species:S:1:pos:R:3 Step=13
POX 1.057003 3.356824 1.582537
POX 1.717496 3.445997 4.968057
POX 3.709215 1.279171 7.367311
POX 1.508731 3.685131 8.496546
POX 3.336546 1.495570 10.927157
POX 2.321604 4.008875 13.062371
POX 2.758602 7.506248 4.029168
POX 3.999917 6.753198 0.898992
POX 3.847990 6.885008 8.486788
POX 3.732567 9.991308 6.988945
POX 0.722664 7.623921 0.475467
POX 2.283725 7.674015 12.031636
POX 0.084731 11.407361 0.694121
POX 2.321941 11.380363 3.320927
POX 0.771002 14.277869 5.232829
POX 1.293316 13.421213 8.534235
POX 1.914215 12.127683 11.979642
POX 3.453061 13.200373 0.242772
POX 5.796921 0.975001 1.734675
POX 8.001905 3.613708 2.019663
POX 7.395725 1.771193 5.172575
POX 7.675904 14.080532 7.707988
POX 6.733879 3.351950 12.781191
POX 6.458740 2.447783 9.462648
POX 7.470344 7.471892 1.713386
POX 5.707158 10.437886 1.713352
POX 7.937723 7.362992 7.443786
POX 6.053949 8.451911 4.765802
POX 6.930106 7.683719 12.866382
POX 9.122921 5.651608 11.143582
POX 8.040249 12.666487 3.657250
POX 9.697067 9.649064 3.420479
POX 6.005937 11.038197 9.312140
POX 8.202828 10.805799 6.661553
POX 5.273439 11.048174 12.691466
POX 7.707278 13.447378 13.167072
POX 11.460300 3.662430 1.501228
POX 10.457525 0.705251 2.969385
POX 12.976292 2.256861 5.498823
POX 12.071575 1.872272 8.806319
POX 9.934858 1.493369 11.918960
POX 13.212147 2.527623 12.228232
POX 14.193305 5.824761 3.556147
POX 13.649025 9.231188 3.478921
POX 10.146978 4.588478 7.219963
POX 11.542867 7.553463 6.140007
POX 13.233604 6.397223 11.828681
POX 11.274514 8.137754 9.584027
POX 11.590763 12.784045 0.314487
POX 12.720749 12.587116 3.568761
POX 13.515492 10.519393 7.069424
POX 11.750168 13.482365 7.171314
POX 14.045859 9.818411 11.013177
POX 12.934064 13.070798 11.316220
54
Lattice="14.632942154092062 0 0 0 14.632942154092062 0 0 0 14.632942154092062" Properties=species:S:1:pos:R:3 Step=14
POX 1.091889 3.374375 1.601635
POX 1.752382 3.463549 4.987155
POX 3.701906 1.251789 7.381408
POX 1.501422 3.657750 8.510644
POX 3.350272 1.464982 10.952868
POX 2.335330 3.978287 13.088082
POX 2.747519 7.524763 4.018883
POX 3.988835 6.771713 0.888707
POX 3.820359 6.873414 8.496482
POX 3.704937 9.979713 6.998639
POX 0.717863 7.626252 0.510489
POX 2.278924 7.676345 12.066658
POX 0.087195 11.410972 0.683824
POX 2.324405 11.383973 3.310630
POX 0.737181 14.294532 5.228149
POX 1.259494 13.437876 8.529555
POX 1.859263 12.128818 11.957760
POX 3.398109 13.201508 0.220891
POX 5.811426 1.003169 1.738109
POX 8.016410 3.641876 2.023097
POX 7.379590 1.748957 5.157306
POX 7.659769 14.058296 7.692719
POX 6.754971 3.340608 12.741893
POX 6.479832 2.436440 9.423349
POX 7.476712 7.487704 1.727957
POX 5.713526 10.453699 1.727923
POX 7.970360 7.385671 7.425200
POX 6.086586 8.474591 4.747216
POX 6.939853 7.702265 12.843253
POX 9.132668 5.670154 11.120453
POX 8.064946 12.667121 3.654812
POX 9.721765 9.649697 3.418042
POX 5.999973 11.009192 9.337400
POX 8.196864 10.776793 6.686813
POX 5.268797 11.042596 12.685397
POX 7.702635 13.441799 13.161003
POX 11.443327 3.705585 1.506180
POX 10.440552 0.748406 2.974336
POX 12.960785 2.282186 5.480285
POX 12.056068 1.897596 8.787780
POX 9.940893 1.476806 11.882415
POX 13.218181 2.511060 12.191688
POX 14.221632 5.825747 3.592412
POX 13.677352 9.232174 3.515186
POX 10.131082 4.589499 7.181438
POX 11.526971 7.554484 6.101481
POX 13.239761 6.374017 11.845589
POX 11.280671 8.114547 9.600935
POX 11.557314 12.762762 0.322638
POX 12.687300 12.565833 3.576913
POX 13.541243 10.493568 7.080168
POX 11.775919 13.456539 7.182058
POX 14.067629 9.826883 11.034812
POX 12.955833 13.079271 11.337855
54
Lattice="14.632942154092062 0 0 0 14.632942154092062 0 0 0 14.632942154092062" Properties=species:S:1:pos:R:3 Step=15
POX 1.129174 3.387572 1.622172
POX 1.789667 3.476746 5.007692
POX 3.694328 1.224324 7.395449
POX 1.493844 3.630284 8.524684
POX 3.364413 1.434712 10.976537
POX 2.349471 3.948017 13.111752
POX 2.740043 7.542252 4.008228
POX 3.981359 6.789202 0.878052
POX 3.788542 6.861122 8.503275
POX 3.673120 9.967421 7.005433
POX 0.708307 7.629901 0.544929
POX 2.269367 7.679995 12.101098
POX 0.093420 11.412142 0.673462
POX 2.330631 11.385143 3.300268
POX 0.704065 14.310176 5.224454
POX 1.226378 13.453520 8.525859
POX 1.805962 12.133275 11.937576
POX 3.344809 13.205965 0.200707
POX 5.822859 1.031507 1.741313
POX 8.027843 3.670215 2.026300
POX 7.363320 1.728973 5.143057
POX 7.643499 14.038311 7.678470
POX 6.777361 3.330287 12.703470
POX 6.502222 2.426120 9.384926
POX 7.483861 7.501257 1.739515
POX 5.720675 10.467252 1.739481
POX 8.002665 7.407282 7.411274
POX 6.118891 8.496201 4.733289
POX 6.948606 7.719353 12.818170
POX 9.141421 5.687242 11.095370
POX 8.090903 12.670222 3.652476
POX 9.747721 9.652799 3.415705
POX 5.999630 10.980693 9.361169
POX 8.196521 10.748295 6.710583
POX 5.263711 11.035789 12.683852
POX 7.697549 13.434993 13.159457
POX 11.430484 3.750180 1.510608
POX 10.427710 0.793001 2.978765
POX 12.943769 2.311069 5.462725
POX 12.039052 1.926480 8.770220
POX 9.947852 1.460722 11.846449
POX 13.225140 2.494976 12.155722
POX 14.246428 5.826681 3.629650
POX 13.702148 9.233108 3.552424
POX 10.115901 4.588304 7.140199
POX 11.511790 7.553289 6.060243
POX 13.245167 6.350036 11.863077
POX 11.286077 8.090566 9.618423
POX 11.517730 12.744932 0.330717
POX 12.647715 12.548003 3.584992
POX 13.567433 10.465598 7.089568
POX 11.802109 13.428569 7.191459
POX 14.087809 9.835870 11.055391
POX 12.976013 13.088258 11.358434
54
Lattice="14.632942154092062 0 0 0 14.632942154092062 0 0 0 14.632942154092062" Properties=species:S:1:pos:R:3 Step=16
POX 1.168841 3.396384 1.645018
POX 1.829334 3.485558 5.030539
POX 3.686481 1.196548 7.409738
POX 1.485997 3.602509 8.538973
POX 3.379603 1.404724 10.997461
POX 2.364661 3.918029 13.132676
POX 2.737336 7.559113 3.997280
POX 3.978652 6.806062 0.867104
POX 3.752975 6.848105 8.507536
POX 3.637552 9.954405 7.009693
POX 0.693703 7.634832 0.579060