64
Lattice="14.880660884926352 0 0 0 14.880660884926352 0 0 0 14.880660884926352" Properties=species:S:1:pos:R:3 Step=0
POX 1.848168 1.771888 1.869315
WTR 1.848024 1.845280 5.548713
WTR 1.805158 1.882268 9.263191
WTR 1.816705 1.882639 13.025965
POX 1.792118 5.582806 1.801383
WTR 1.913140 5.646086 5.579181
WTR 1.924547 5.502074 9.301399
WTR 1.779226 5.566875 12.945527
WTR 1.790742 9.318427 1.809107
WTR 1.786993 9.248402 5.552323
WTR 1.854091 9.244942 9.326515
WTR 1.856927 9.301360 12.999558
WTR 1.914700 13.035440 1.797307
WTR 1.897435 13.106970 5.580244
WTR 1.932528 12.991133 9.312902
POX 1.846561 13.008822 13.072024
WTR 5.586861 1.944477 1.868302
POX 5.502523 1.835222 5.645490
WTR 5.562811 1.772139 9.253407
POX 5.499737 1.951907 13.108100
WTR 5.636097 5.599208 1.909374
WTR 5.518721 5.541764 5.584716
WTR 5.553596 5.495733 9.390264
POX 5.569346 5.581058 12.987771
WTR 5.535561 9.279369 1.921820
WTR 5.624272 9.277924 5.489687
POX 5.635544 9.257514 9.315778
WTR 5.491967 9.330572 12.999674
WTR 5.579685 13.004761 1.832349
WTR 5.589737 13.108518 5.508221
WTR 5.545510 12.935372 9.344736
POX 5.609579 12.967458 13.005096
POX 9.327173 1.890144 1.798797
WTR 9.371390 1.911793 5.512183
WTR 9.368991 1.906349 9.355946
WTR 9.308470 1.808162 13.098375
WTR 9.317536 5.551655 1.816130
WTR 9.377389 5.565306 5.587718
WTR 9.320563 5.640929 9.323407
WTR 9.240315 5.597202 13.018578
WTR 9.309338 9.337488 1.812795
WTR 9.242123 9.227986 5.538220
WTR 9.209353 9.324458 9.262287
POX 9.242259 9.225150 12.980348
POX 9.247407 12.980663 1.854761
WTR 9.309616 13.084758 5.671113
WTR 9.216501 12.970751 9.327079
WTR 9.237471 13.089416 12.968001
WTR 13.065542 1.888543 1.915653
POX 12.933397 1.809839 5.618251
POX 12.943875 1.772724 9.273875
WTR 13.037282 1.776794 12.939803
WTR 12.935656 5.560739 1.891412
WTR 12.964404 5.650202 5.567697
POX 13.042836 5.541279 9.321854
WTR 13.104956 5.570590 12.966114
WTR 13.006687 9.290119 1.861491
POX 13.025342 9.215287 5.517829
WTR 13.011328 9.339102 9.352060
WTR 13.072125 9.300939 13.105534
WTR 12.989315 13.017132 1.906275
POX 13.087144 13.004665 5.645105
WTR 13.010275 13.060701 9.209015
WTR 12.932260 13.102489 12.946577
64
Lattice="14.880660884926352 0 0 0 14.880660884926352 0 0 0 14.880660884926352" Properties=species:S:1:pos:R:3 Step=1
POX 1.829379 1.447226 1.814633
WTR 1.590416 1.963536 5.943265
WTR 2.057988 1.830132 9.489246
WTR 1.631309 2.155375 12.720203
POX 1.863323 6.064335 1.785334
WTR 1.693210 5.536704 5.701349
WTR 2.057423 5.662966 9.306224
WTR 1.807048 5.527094 12.820174
WTR 1.883121 9.616285 1.774750
WTR 2.143034 9.445548 5.610241
WTR 1.673460 9.324358 9.193454
WTR 1.786609 8.968103 13.077024
WTR 1.822100 12.623337 2.356105
WTR 2.160374 12.954958 5.598549
WTR 1.791128 13.095398 9.175186
POX 1.246989 13.110093 13.071270
WTR 5.555369 1.885310 1.901661
POX 5.573012 1.872071 5.471837
WTR 5.505396 1.789800 9.554787
POX 5.514561 1.470207 13.056192
WTR 5.654832 5.663654 2.027097
WTR 5.592011 5.804844 5.562833
WTR 5.705493 5.265051 8.957774
POX 5.636703 6.389739 13.136261
WTR 5.599098 9.312951 1.709405
WTR 5.482040 9.186389 5.561723
POX 5.425205 9.201902 9.227636
WTR 5.059433 9.619511 13.334667
WTR 5.298363 13.184250 1.989576
WTR 5.701925 12.585203 5.540674
WTR 5.532516 13.276114 8.951104
POX 6.164934 12.440575 13.008346
POX 9.339656 2.292708 1.908762
WTR 9.084458 1.815512 5.873777
WTR 8.770172 1.855114 9.208128
WTR 9.348070 1.864856 12.534171
WTR 9.193999 5.875085 1.735060
WTR 9.171037 5.485066 5.541723
WTR 9.047887 5.603838 9.382825
WTR 9.698415 5.180362 12.984731
WTR 9.367287 8.827792 1.954023
WTR 9.114807 9.387687 5.494886
WTR 9.805547 9.206592 8.910586
POX 9.317489 9.399546 12.906675
POX 9.400943 12.471508 1.844203
WTR 9.230960 12.979999 5.694608
WTR 9.288139 13.031461 9.354886
WTR 9.734186 13.102377 12.855646
WTR 12.978583 1.784391 1.349856
POX 13.028891 2.508871 4.699607
POX 13.078830 1.219309 9.937421
WTR 13.016817 1.945471 13.428273
WTR 12.798040 5.538186 1.931835
WTR 13.045937 5.714915 5.735129
POX 13.076301 5.951763 9.316438
WTR 12.966204 5.643783 13.417445
WTR 12.947255 9.415555 1.631574
POX 12.822911 8.798470 5.584374
WTR 13.071502 9.485462 9.500892
WTR 13.140754 9.376198 13.010645
WTR 13.250558 13.094553 1.679692
POX 13.123242 12.941308 5.594066
WTR 13.070792 12.495989 9.735209
WTR 12.704043 12.877757 13.088565
64
Lattice="14.880660884926352 0 0 0 14.880660884926352 0 0 0 14.880660884926352" Properties=species:S:1:pos:R:3 Step=2
POX 1.830109 1.130156 1.733041
WTR 1.412684 1.855011 6.304774
WTR 2.081131 1.838239 9.439949
WTR 1.506215 2.183086 12.910841
POX 1.915578 6.395164 1.786980
WTR 1.647267 5.515600 5.667649
WTR 2.334416 5.848626 9.226277
WTR 1.940082 5.442196 12.745635
WTR 1.939748 9.822966 1.625436
WTR 1.997284 9.447989 5.547135
WTR 1.530223 9.503794 9.118554
WTR 0.963764 8.548702 12.817190
WTR 1.584654 12.781089 2.897380
WTR 2.529266 13.228674 6.074879
WTR 1.604800 13.170101 9.159880
POX 0.968453 13.277165 13.112838
WTR 5.609915 2.053423 1.622557
POX 5.438185 1.878837 5.382591
WTR 5.227965 1.936065 9.453179
POX 5.428867 1.179892 13.168358
WTR 5.553951 5.437061 2.101575
WTR 5.453174 5.803525 5.428464
WTR 5.654316 5.042752 8.707776
POX 5.948907 6.600215 13.202507
WTR 5.932939 9.502725 1.836623
WTR 5.516653 9.005163 5.264221
POX 5.286087 9.154883 9.316835
WTR 3.732837 10.001778 13.835315
WTR 5.174664 13.447470 1.961873
WTR 5.986062 12.246971 5.402740
WTR 5.505384 13.434464 8.717394
POX 6.915551 12.298483 12.877422
POX 9.297824 2.495083 2.062812
WTR 9.645206 1.563316 5.865296
WTR 8.555638 1.845818 9.001447
WTR 9.382045 1.727822 12.194905
WTR 8.860691 5.805178 1.347430
WTR 9.139017 5.412040 5.474240
WTR 9.056423 5.647553 9.513303
WTR 9.804474 5.015340 12.926162
WTR 9.483061 8.738212 2.204196
WTR 8.745420 9.592425 5.356565
WTR 10.023477 9.054312 8.583809
POX 9.371916 9.430576 12.765369
POX 9.560435 12.076012 1.798220
WTR 9.349007 13.070960 5.657957
WTR 9.381015 13.001706 9.260950
WTR 9.883612 13.848051 12.763835
WTR 12.768722 0.967313 0.808799
POX 13.070413 2.739797 3.885280
POX 13.221435 0.637935 10.328086
WTR 12.802813 2.789669 13.063710
WTR 12.719923 5.755057 2.310991
WTR 13.186451 4.941660 6.434857
POX 13.072091 6.085061 9.559143
WTR 13.255000 5.923638 13.723328
WTR 12.975017 9.536515 1.589690
POX 12.564751 9.060087 5.588025
WTR 13.313073 9.413456 9.456584
WTR 13.080459 9.282597 12.876631
WTR 13.563654 13.128707 1.703362
POX 13.184927 13.103026 5.576008
WTR 13.084717 12.351275 10.009230
WTR 12.471142 12.503180 13.671089
64
Lattice="14.880660884926352 0 0 0 14.880660884926352 0 0 0 14.880660884926352" Properties=species:S:1:pos:R:3 Step=3
POX 1.860758 1.149888 1.683805
WTR 0.996629 1.731232 5.938840
WTR 1.533907 2.099763 9.710330
WTR 1.461655 2.009876 13.219995
POX 1.865264 6.328712 1.782619
WTR 1.728153 5.559235 5.408179
WTR 2.341110 6.028077 9.146857
WTR 2.570034 5.173085 12.822324
WTR 1.733435 10.188993 1.691997
WTR 1.463299 9.344770 5.358532
WTR 1.965534 9.739780 9.045492
WTR 0.916936 8.230488 12.189162
WTR 1.841364 12.809384 3.759879
WTR 3.053376 13.650141 6.494805
WTR 1.466427 13.157542 9.633919
POX 1.078298 13.366603 13.174078
WTR 5.612172 2.229462 1.718338
POX 5.300054 1.796985 5.366104
WTR 5.174050 1.847493 9.474970
POX 5.259999 1.024729 13.128103
WTR 5.274697 5.446319 1.895398
WTR 5.220729 5.341930 5.354767
WTR 5.795380 5.317745 8.809724
POX 6.196212 6.690443 13.154559
WTR 6.305092 9.729592 1.694620
WTR 5.127855 8.800092 5.143322
POX 5.350234 9.136517 9.497798
WTR 3.617212 10.872953 13.649903
WTR 5.252213 13.530484 1.680810
WTR 6.180766 12.490729 5.106791
WTR 5.560651 13.220334 8.884444
POX 6.860742 12.194789 12.751951
POX 9.258471 2.274431 2.167822
WTR 10.525193 1.577693 5.536891
WTR 8.692063 1.880360 8.633541
WTR 8.877341 2.561698 12.060242
WTR 8.438094 5.798744 0.720349
WTR 9.319237 5.370576 5.404782
WTR 9.186569 5.736972 9.527375
WTR 9.744338 5.512475 12.841293
WTR 9.885340 8.339591 2.512253
WTR 8.607306 9.715239 5.435158
WTR 9.699182 8.981719 8.578948
POX 9.287969 9.082258 12.590937
POX 9.645035 12.205162 1.708471
WTR 9.618315 13.164339 5.475382
WTR 9.387202 12.817399 9.191920
WTR 10.400176 14.247283 12.677576
WTR 12.299665 0.522117 -0.220743
POX 13.241319 2.524481 3.381497
POX 13.312596 0.696141 10.310089
WTR 12.536948 3.649763 12.860558
WTR 12.615132 6.472787 2.681382
WTR 13.084668 4.245835 6.792886
POX 13.035251 5.764668 10.254157
WTR 13.728482 6.543818 14.240477
WTR 13.138544 9.489280 1.750410
POX 12.396063 9.288059 5.501488
WTR 13.376124 8.978651 8.808639
WTR 12.770809 9.168927 12.705650
WTR 13.578107 12.648923 2.342994
POX 13.306197 13.437215 5.693438
WTR 12.674836 12.084898 10.197903
WTR 12.319086 11.854015 14.232048
64
Lattice="14.880660884926352 0 0 0 14.880660884926352 0 0 0 14.880660884926352" Properties=species:S:1:pos:R:3 Step=4
POX 2.037441 1.182268 1.816821
WTR 0.900481 1.703508 5.650208
WTR 1.603936 2.841953 9.602434
WTR 1.102089 2.320945 13.132799
POX 1.736859 6.212499 1.786463
WTR 1.456423 5.438032 5.388910
WTR 2.100428 6.098037 8.973506
WTR 3.315123 4.814484 12.966527
WTR 1.809673 10.220779 1.538994
WTR 0.930375 9.250066 5.223373
WTR 2.016003 10.138384 8.687956
WTR 1.981290 8.284527 11.620273
WTR 2.267020 12.850663 4.237312
WTR 3.504643 14.092517 7.368615
WTR 1.383146 13.242068 9.752962
POX 1.036360 13.351941 13.415667
WTR 5.531645 2.164626 1.722692
POX 5.246551 1.545980 5.415287
WTR 5.043605 1.799182 9.403897
POX 5.024423 0.983611 13.062574
WTR 5.205903 5.929957 1.693915
WTR 5.271789 5.221018 5.373800
WTR 5.965164 5.558911 9.098800
POX 5.959418 6.714447 12.947777
WTR 6.544489 9.840547 1.260571
WTR 4.547074 8.789639 5.187319
POX 5.697210 9.155002 9.704782
WTR 3.669208 10.918485 13.203898
WTR 5.369612 13.448323 1.254712
WTR 6.217615 12.813977 4.779679
WTR 5.821794 12.783081 9.351205
POX 6.851459 12.253643 12.622282
POX 9.218435 1.980147 2.130524
WTR 11.064110 1.656035 5.665990
WTR 8.903614 1.827530 8.086638
WTR 7.990999 2.866086 12.076584
WTR 8.473099 5.385822 1.175067
WTR 9.444883 5.356708 5.321674
WTR 9.400104 5.576487 9.139612
WTR 10.363194 5.732871 12.741589
WTR 9.847344 8.349647 2.609057
WTR 8.261196 9.739330 5.526476
WTR 9.348757 9.127616 8.797367
POX 9.044094 9.100966 12.380632
POX 9.515665 12.444667 1.666689
WTR 9.775739 13.194813 5.320203
WTR 9.151500 12.686232 9.074267
WTR 9.774046 14.246280 11.975380
WTR 12.570382 0.553838 -0.092001
POX 13.415744 2.407121 2.789906
POX 13.128348 0.982739 10.235784
WTR 12.402209 3.152981 13.479336
WTR 12.739072 5.968848 3.543663
WTR 12.984655 3.808556 7.024055
POX 13.124122 5.534333 10.706832
WTR 13.839462 6.606190 14.826411
WTR 13.396936 9.340548 1.747549
POX 12.195496 9.473117 5.268182
WTR 13.757745 8.265441 8.387763
WTR 13.312506 8.962166 12.037352
WTR 13.566148 12.922779 2.570188
POX 13.496723 13.828882 6.188904
WTR 12.307446 11.760682 10.399794
WTR 12.433138 11.669446 14.227741
64
Lattice="14.880660884926352 0 0 0 14.880660884926352 0 0 0 14.880660884926352" Properties=species:S:1:pos:R:3 Step=5
POX 2.429515 1.069521 1.912656
WTR 1.398693 1.831260 5.570632
WTR 1.685974 3.105663 9.315289
WTR 0.328197 2.358714 13.079260
POX 1.713780 6.033122 1.911052
WTR 1.184045 5.214354 5.560109
WTR 2.125711 6.439076 8.563132
WTR 3.106864 4.114359 13.151603
WTR 2.368996 10.302757 1.264216
WTR 0.698856 9.190530 4.970256
WTR 2.192193 10.528879 7.995778
WTR 2.873229 7.880679 11.489460
WTR 2.586850 12.829274 4.474285
WTR 3.359902 14.278335 7.921149
WTR 0.832491 13.578093 10.019998
POX 0.894061 13.386224 13.759467
WTR 5.726897 2.560152 1.620863
POX 5.331434 1.412796 5.382679
WTR 5.183308 1.977146 9.274378
POX 4.603594 0.959165 13.032168
WTR 5.489660 6.490815 1.762527
WTR 5.499921 5.361517 5.436532
WTR 5.885430 5.378188 9.249835
POX 5.890059 6.756383 12.897821
WTR 6.590191 9.739120 0.798103
WTR 4.146779 8.954794 5.217780
POX 5.920753 9.224634 9.722176
WTR 3.637007 10.607029 13.071067
WTR 5.330058 13.292547 0.950266
WTR 6.230111 12.850525 4.493034
WTR 5.747842 12.763510 9.260132
POX 6.918253 12.477612 12.790487
POX 9.226219 1.556004 2.096779
WTR 11.147788 1.614176 5.312858
WTR 8.671823 1.720482 8.034467
WTR 7.499660 3.265512 12.125328
WTR 8.897520 5.151674 1.488021
WTR 9.330854 5.350291 5.205867
WTR 9.899021 5.253420 8.728647
WTR 10.146475 5.607670 13.182945
WTR 9.540761 8.478294 2.234678
WTR 7.642117 9.630635 5.546227
WTR 9.587981 9.142537 8.560098
POX 9.333343 9.319829 12.355381
POX 9.320699 12.641571 1.556794
WTR 9.953724 13.203112 5.302360
WTR 9.123867 12.695671 8.481551
WTR 9.576310 14.832663 11.699140
WTR 12.560930 -0.607643 0.110082
POX 13.377153 2.502471 2.348872
POX 12.843602 1.195743 10.157163
WTR 12.134191 2.998644 14.147740
WTR 12.866654 5.466643 4.502592
WTR 13.192819 3.950707 7.613426
POX 13.485522 5.221115 10.846250
WTR 13.068165 6.298153 14.433410
WTR 13.504322 9.263547 1.728305
POX 11.834374 9.799457 5.145251
WTR 13.990812 7.813098 8.001244
WTR 13.691600 8.885828 11.653491
WTR 13.753962 13.287983 2.976335
POX 13.724760 13.971012 6.848335
WTR 12.230574 11.732216 10.183500
WTR 12.309128 11.467341 13.725689
64
Lattice="14.880660884926352 0 0 0 14.880660884926352 0 0 0 14.880660884926352" Properties=species:S:1:pos:R:3 Step=6
POX 2.722917 0.968756 2.010999
WTR 1.752979 1.738547 5.444387
WTR 1.729329 2.809770 9.232193
WTR -0.275215 1.918501 13.174097
POX 1.616345 5.834100 1.911047
WTR 1.398848 5.120214 5.508253
WTR 2.703305 7.053843 7.992331
WTR 2.814901 4.372029 13.510113
WTR 2.768028 10.236930 1.424757
WTR 0.415100 9.172368 4.436828
WTR 2.335168 10.953757 7.692442
WTR 2.607958 7.129310 11.458260
WTR 2.696074 12.756135 4.592345
WTR 2.608790 14.558651 7.892045
WTR 0.316866 13.671124 10.750829
POX 0.903051 13.312912 14.130377
WTR 6.003251 3.347986 1.392947
POX 5.532091 1.436412 5.275694
WTR 5.399878 2.049323 9.360497
POX 4.126984 0.786959 12.918045
WTR 5.693575 6.932914 2.165634
WTR 5.616981 5.459641 5.509518
WTR 5.927943 5.415014 9.194970
POX 6.025207 6.721153 13.108206
WTR 6.475898 9.767029 0.296161
WTR 3.947070 9.016540 5.086040
POX 6.088956 9.287150 9.510930
WTR 3.730986 10.885031 12.750311
WTR 4.955200 13.323716 1.237005
WTR 6.447854 12.606483 4.272230
WTR 5.757136 13.075028 9.065993
POX 7.044565 12.719974 12.904335
POX 9.204002 1.362595 2.089642
WTR 11.286628 1.808914 5.158214
WTR 8.463425 1.577879 8.041390
WTR 7.295647 3.412246 12.209814
WTR 9.335432 5.024266 1.748816
WTR 8.996830 5.386397 5.090685
WTR 10.289853 5.067779 8.750623
WTR 9.239977 5.881740 13.069120
WTR 9.565543 8.745046 1.833748
WTR 7.236431 9.344790 5.524263
WTR 10.202799 8.757516 8.198315
POX 9.694001 9.279107 12.365205
POX 9.151500 12.317038 1.369511
WTR 10.162804 13.352956 4.896888
WTR 9.186461 12.803445 8.199711
WTR 9.426165 15.613348 11.762255
WTR 11.935455 -0.765721 0.011586
POX 13.569428 2.600924 2.231603
POX 12.440582 1.357175 10.214791
WTR 10.953821 2.546152 13.862774
WTR 12.607862 5.741826 4.903727
WTR 13.382800 3.696584 7.563212
POX 13.935825 5.038740 11.148771
WTR 12.921566 6.317411 14.607374
WTR 13.627708 9.243142 1.541828
POX 11.440637 10.120707 5.105455
WTR 13.634937 7.799238 7.572762
WTR 14.418222 8.837580 11.438097
WTR 14.156372 13.281895 3.786689
POX 13.966897 13.901703 7.275500
WTR 12.190187 11.919570 9.621539
WTR 12.437266 10.936197 13.440322
64
Lattice="14.880660884926352 0 0 0 14.880660884926352 0 0 0 14.880660884926352" Properties=species:S:1:pos:R:3 Step=7
POX 2.868230 1.180712 2.074048
WTR 1.533399 1.704508 5.292218
WTR 1.798785 2.832361 9.516942
WTR -0.376028 1.562321 13.619936
POX 1.527406 5.751211 1.875155
WTR 1.734162 5.147499 5.459055
WTR 3.294415 7.695282 7.631579
WTR 2.546652 4.327752 13.825907
WTR 2.892935 9.936032 1.582013
WTR 0.155696 9.159656 4.264202
WTR 2.258901 11.176689 7.987923
WTR 2.485472 6.739870 11.524092
WTR 2.922154 12.720003 4.546011
WTR 2.621786 14.685504 8.227218
WTR 0.197434 13.564980 11.135395
POX 0.950499 13.040022 14.873305
WTR 5.928381 3.970142 1.076668
POX 5.865792 1.484111 5.134040
WTR 5.227085 1.842532 9.461856
POX 3.662281 0.640194 12.679623
WTR 5.726396 7.275305 2.644582
WTR 5.284024 5.312801 5.639198
WTR 6.215217 5.724077 9.173635
POX 5.814618 6.796001 13.355424
WTR 6.206067 10.008728 -0.138794
WTR 3.693940 9.039555 4.654233
POX 6.292962 9.394562 9.306027
WTR 3.554952 11.065185 11.932719
WTR 5.027252 13.052183 1.271444
WTR 6.818771 12.404947 4.410459
WTR 5.687217 13.389252 8.955126
POX 7.183517 12.889692 12.708292
POX 9.021423 1.316488 2.127837
WTR 11.458242 2.147020 5.392796
WTR 8.719994 1.538712 7.780918
WTR 6.596553 3.127929 12.360965
WTR 9.991440 5.080792 1.831856
WTR 8.767483 5.412126 5.352386
WTR 10.438498 4.874229 9.157505
WTR 9.821456 5.661787 12.782531
WTR 9.961456 8.332756 1.575997
WTR 7.479740 8.936297 5.622668
WTR 10.272621 8.269615 8.413768
POX 9.701664 9.253574 12.125807
POX 9.038334 11.772303 1.298607
WTR 10.282573 14.021911 4.346938
WTR 9.057121 12.755741 8.178384
WTR 8.521114 15.463654 11.405896
WTR 11.673144 -0.558963 -0.095960
POX 13.822830 2.685229 2.168347
POX 11.984338 1.462875 10.251728
WTR 10.100462 2.824599 13.768387
WTR 12.198644 6.282798 4.473301
WTR 13.855093 3.290918 7.206907
POX 14.342273 5.043812 11.516287
WTR 12.851429 6.179121 14.939687
WTR 13.647002 9.379978 1.228364
POX 11.173805 10.314511 4.957908
WTR 13.585622 7.981733 7.553215
WTR 15.065894 9.143222 11.063014
WTR 14.291670 13.205695 3.647387
POX 14.063267 13.813219 7.397684
WTR 11.987752 11.537846 9.580171
WTR 13.445385 11.159231 13.489512
64
Lattice="14.880660884926352 0 0 0 14.880660884926352 0 0 0 14.880660884926352" Properties=species:S:1:pos:R:3 Step=8
POX 3.128615 1.585811 1.969443
WTR 1.237424 1.414040 5.343415
WTR 1.875199 3.250376 9.954259
WTR -0.374610 1.389781 13.675892
POX 1.516373 6.006964 1.963896
WTR 1.697253 5.399630 5.731398
WTR 3.471097 7.995446 7.954134
WTR 2.612046 3.555254 13.739035
WTR 2.673872 9.472228 0.965079
WTR -0.053773 9.198302 4.608281
WTR 2.022798 11.193956 8.283162
WTR 3.152194 6.851753 11.073776
WTR 3.253604 12.901151 4.552905
WTR 2.813250 14.727977 8.478695
WTR 0.145241 13.586859 11.208743
POX 1.268002 12.802516 15.746619
WTR 5.816973 4.120707 1.196124
POX 6.158956 1.480911 5.017395
WTR 5.287847 2.235605 9.126190
POX 3.191872 0.389490 12.451430
WTR 6.099149 7.481657 2.635814
WTR 4.937621 4.861617 5.760877
WTR 6.690848 5.637690 9.390402
POX 5.622482 6.808631 13.507424
WTR 5.778982 10.061470 -0.352233
WTR 3.605866 9.337279 4.532794
POX 6.536965 9.666777 9.222342
WTR 3.399689 11.243067 11.284127
WTR 5.309178 13.102675 1.124052
WTR 7.138180 12.285401 4.877508
WTR 5.817325 13.155934 8.825157
POX 7.057344 12.685674 12.502242
POX 8.583186 1.378469 2.016001
WTR 11.434433 2.631755 5.307164
WTR 9.024678 1.690753 7.242706
WTR 5.749400 3.246033 12.723042
WTR 10.316797 4.406596 2.017115
WTR 8.694398 5.186664 5.795635
WTR 10.572194 4.606533 9.386019
WTR 10.491993 5.960162 12.266878
WTR 10.219487 7.938293 1.240025
WTR 7.852368 8.621391 5.702099
WTR 9.890762 7.959769 8.603203
POX 9.693247 9.456387 11.990419
POX 9.090467 11.453825 1.322772
WTR 10.801958 13.953982 4.532225
WTR 9.039646 12.510483 7.988000
WTR 8.196907 16.007773 10.279441
WTR 11.502528 -0.493709 -0.248163
POX 13.820433 2.652120 2.234922
POX 11.758567 1.471843 10.328586
WTR 9.913304 2.515654 13.854232
WTR 12.170171 6.773327 4.077221
WTR 14.340842 3.416904 7.436732
POX 14.378702 5.031611 11.842166
WTR 13.106382 5.876464 15.019719
WTR 13.620129 9.479049 1.148022
POX 10.989743 10.480649 4.840569
WTR 14.047673 8.038907 7.775044
WTR 15.320908 9.561799 10.552550
WTR 13.893841 13.196454 3.402636
POX 13.926406 13.723052 7.367527
WTR 11.887979 10.997374 9.773792
WTR 13.157504 11.100842 12.759113
64
Lattice="14.880660884926352 0 0 0 14.880660884926352 0 0 0 14.880660884926352" Properties=species:S:1:pos:R:3 Step=9
POX 3.393290 1.921595 1.920101
WTR 1.221259 0.950753 5.126332
WTR 2.333596 3.475550 10.109379
WTR -0.514074 1.239065 13.553024
POX 1.649724 6.251877 2.096897
WTR 1.227158 5.834147 5.924404
WTR 3.584955 8.116016 7.673725
WTR 2.193419 3.788921 13.918125
WTR 2.271335 8.882329 -0.217514
WTR -0.062415 9.575017 4.907146
WTR 1.804761 11.470018 7.572964
WTR 3.225903 6.810750 10.782069
WTR 3.563563 13.337869 4.651798
WTR 2.448960 14.933383 8.423153
WTR -0.271488 13.614467 11.007684
POX 1.717815 12.614802 16.294824
WTR 6.038522 4.281460 1.927480
POX 6.095129 1.305568 5.132188
WTR 5.169612 3.022716 8.376269
POX 2.945109 -0.118815 12.260117
WTR 6.701668 7.641838 2.457866
WTR 4.839373 4.714741 5.782128
WTR 7.227566 5.605262 9.826510
POX 5.664050 6.703219 13.652400
WTR 5.516749 10.338029 -0.225670
WTR 3.718951 9.611992 4.601190
POX 6.751281 9.813415 9.220973
WTR 3.615246 11.396492 11.374263
WTR 5.588017 13.733519 1.180224
WTR 7.246636 12.232270 5.127805
WTR 5.852187 13.354375 8.480028
POX 7.018065 12.793733 12.197745
POX 8.121401 1.076025 1.703251
WTR 11.913593 3.354447 5.104762
WTR 9.361467 1.584037 6.727666
WTR 5.677764 2.925108 12.796702
WTR 10.398017 4.019486 2.224210
WTR 8.619819 4.897610 6.043211
WTR 10.754301 4.502393 8.841679
WTR 10.964368 6.287361 12.334540
WTR 10.038942 7.735320 0.663690
WTR 7.860696 8.403378 5.602354
WTR 9.880846 7.747571 8.445823
POX 9.527913 9.681424 12.191186
POX 9.132717 11.312556 1.269022
WTR 10.647048 14.546735 4.901812
WTR 9.533370 12.360727 7.872004
WTR 7.594310 16.076994 10.237905
WTR 11.330585 -0.858603 -0.334811
POX 13.797833 2.480946 2.361996
POX 11.934013 1.218973 10.476192
WTR 9.786466 2.373982 13.185200
WTR 12.359883 7.005155 4.083903
WTR 14.154833 3.730202 8.154460
POX 14.288373 5.120394 11.985327
WTR 13.265841 5.761235 15.424319
WTR 13.583521 9.731127 1.058235
POX 10.964847 10.457025 4.876530
WTR 14.150261 7.635578 8.025685
WTR 15.347410 9.372932 10.762318
WTR 13.499534 13.137715 3.535385
POX 13.668155 13.630778 7.318039
WTR 12.093713 10.850727 9.022023
WTR 12.708569 11.135546 12.873207
64
Lattice="14.880660884926352 0 0 0 14.880660884926352 0 0 0 14.880660884926352" Properties=species:S:1:pos:R:3 Step=10
POX 3.451943 2.070941 1.933966
WTR 1.087721 0.975196 4.930194
WTR 2.570797 3.382339 10.378077
WTR -0.689834 1.182255 13.688284
POX 1.924698 6.354266 2.382604
WTR 0.936687 5.885964 5.778524
WTR 3.846038 8.206688 7.200515
WTR 1.997156 4.311251 14.186226
WTR 1.958084 8.637028 -1.389102
WTR 0.047068 10.048260 4.885871
WTR 1.897450 11.633994 7.006748
WTR 3.220573 6.750034 10.969629
WTR 3.796979 13.389591 4.762285
WTR 2.106424 15.334182 8.366506
WTR -0.590251 12.994698 10.757194
POX 2.098260 12.430030 16.630433
WTR 6.648341 4.647818 2.589469
POX 5.917881 1.101315 5.358053
WTR 5.089782 3.400594 8.110389
POX 2.906230 -0.391623 12.295334
WTR 7.105098 8.140798 2.185531
WTR 4.408924 5.467107 4.986920
WTR 7.614581 5.768106 10.535416
POX 5.811216 6.556318 13.774540
WTR 5.366278 10.642099 0.078732
WTR 4.038907 9.838475 3.998665
POX 6.800308 9.772044 9.147730
WTR 3.797022 10.838714 11.367030
WTR 5.038014 13.601033 0.998196
WTR 7.221720 12.110748 4.897211
WTR 5.560450 13.898474 8.050598
POX 7.031997 13.185839 12.049970
POX 8.132454 0.830847 1.207501
WTR 12.613144 4.073127 5.692037
WTR 9.308499 1.720539 7.690076
WTR 5.778800 2.422564 13.043891
WTR 10.015391 4.133773 2.010013
WTR 8.297043 4.850615 5.826085
WTR 10.896272 4.326302 8.679373
WTR 10.852247 6.334980 12.302468
WTR 9.733722 7.307689 0.359509
WTR 7.541130 8.337874 5.590278
WTR 10.251297 7.921844 8.321292
POX 9.331110 9.760351 12.397803
POX 9.056201 11.331759 1.239006
WTR 10.381307 14.620753 4.194936
WTR 9.680643 12.760100 8.108235
WTR 7.543093 16.097692 10.264849
WTR 11.150886 -0.964949 -0.299242
POX 14.000149 2.140916 2.277602
POX 12.028284 0.952034 10.530113
WTR 9.490494 2.663442 12.825384
WTR 12.455967 7.043724 4.179506
WTR 14.206470 3.563042 8.749743
POX 14.264923 5.232948 11.865330
WTR 13.118978 5.849151 15.917345
WTR 13.572341 9.896987 1.249503
POX 11.022290 10.398003 4.984087
WTR 13.759282 7.145366 8.406015
WTR 15.128403 9.233935 11.192098
WTR 13.564706 13.030697 3.093090
POX 13.357469 13.721775 7.153640
WTR 12.645714 10.192822 8.599242
WTR 12.738960 11.278463 13.135415
64
Lattice="14.880660884926352 0 0 0 14.880660884926352 0 0 0 14.880660884926352" Properties=species:S:1:pos:R:3 Step=11
POX 3.530133 2.232737 1.966969
WTR 1.204143 1.135555 5.179129
WTR 2.752111 3.013185 11.146734
WTR -0.572197 1.058981 13.468044
POX 2.049553 6.699136 2.345301
WTR 0.912072 5.749190 5.992687
WTR 3.881461 8.250422 7.220014
WTR 2.206311 4.588636 14.367177
WTR 2.194881 8.211962 -0.723673
WTR 0.102376 10.095117 4.592634
WTR 2.157422 11.739755 7.489291
WTR 3.461770 6.751758 10.626560
WTR 3.789399 13.062221 4.839146
WTR 1.806682 15.499599 8.428377
WTR -0.061356 12.366139 10.456056
POX 1.935067 12.033623 16.750360
WTR 6.868340 4.585203 2.679520
POX 6.078770 1.301623 5.318381
WTR 5.216590 4.058986 8.078584
POX 2.802826 -0.594379 12.436144
WTR 7.128149 8.669049 2.130606
WTR 4.666846 5.982898 4.814590
WTR 7.692126 5.933128 10.910185
POX 5.946875 6.390942 14.008716
WTR 5.121911 10.204018 -0.152513
WTR 4.406867 9.754935 3.067222
POX 6.806259 9.775657 9.005659
WTR 3.943708 10.197905 11.123206
WTR 5.255167 14.111489 0.444504
WTR 7.380561 11.994062 4.578177
WTR 5.157557 13.658190 8.525540
POX 7.066541 13.474672 12.099540
POX 8.216780 0.768476 0.701276
WTR 13.034275 3.997481 5.922684
WTR 9.546943 1.536590 7.664328
WTR 5.487796 2.112307 13.660779
WTR 10.066760 3.842669 1.858742
WTR 8.142615 4.717024 5.774521
WTR 10.755282 4.600725 9.139711
WTR 10.757607 6.274075 11.930259
WTR 9.613950 6.995414 0.405679
WTR 7.268690 8.372160 5.756429
WTR 10.137538 8.079015 8.174576
POX 9.140861 9.779286 12.453095
POX 8.984507 11.482594 1.366346
WTR 10.265511 14.620460 3.356328
WTR 9.522035 13.137533 8.680425
WTR 7.035677 16.716566 10.393345
WTR 11.219107 -0.547281 -0.459067
POX 14.043860 1.881790 2.133618
POX 11.952878 0.721609 10.625511
WTR 9.405651 3.236300 12.897516
WTR 12.374836 7.268014 4.283247
WTR 14.816893 2.756404 8.922055
POX 14.249723 5.394450 11.894650
WTR 13.250732 5.843748 15.861715
WTR 13.606825 9.636866 1.586103
POX 10.989850 10.447898 5.104995
WTR 13.580367 6.389809 8.683061
WTR 14.353299 9.076082 10.889127
WTR 13.321390 13.225829 2.579763
POX 13.010006 13.952396 6.745409
WTR 13.132548 10.225337 8.017642
WTR 12.755835 11.210497 13.396090
64
Lattice="14.880660884926352 0 0 0 14.880660884926352 0 0 0 14.880660884926352" Properties=species:S:1:pos:R:3 Step=12
POX 3.527674 2.351527 2.191097
WTR 1.526887 1.393814 5.248150
WTR 2.992032 2.765399 11.589067
WTR -0.121713 1.140083 13.058098
POX 1.859510 6.997281 2.503313
WTR 1.587259 5.746936 6.176122
WTR 3.412497 8.509149 7.321381
WTR 2.326071 4.602202 14.267696
WTR 2.057801 8.519138 -1.112954
WTR 0.498193 9.980621 4.794688
WTR 2.233290 11.351875 8.096066
WTR 3.566153 6.503579 10.284693
WTR 4.031993 13.151393 4.873655
WTR 2.412215 14.725026 8.539617
WTR 0.262071 12.514942 10.396496
POX 1.592763 11.801349 16.517696
WTR 6.685129 4.234682 2.160166
POX 6.315073 1.501839 5.215316
WTR 5.098331 4.659045 8.122526
POX 2.672259 -0.910310 12.563329
WTR 7.556977 8.139867 2.340188
WTR 5.270160 5.859528 5.183530
WTR 7.192229 6.185544 10.498092
POX 5.941938 6.218266 14.297691
WTR 5.123733 10.209073 -0.988343
WTR 4.253301 9.577659 3.129311
POX 6.868539 9.940195 8.928320
WTR 3.626951 10.098085 11.070112
WTR 4.814213 13.669401 0.553450
WTR 7.378169 12.245395 4.811246
WTR 5.156219 13.288929 9.169022
POX 7.171698 13.552244 12.123616
POX 8.278360 0.980962 0.374805
WTR 12.699352 3.171152 5.659495
WTR 9.916674 1.350458 6.778959
WTR 5.174771 2.502224 13.839107
WTR 10.835200 3.333910 2.009133
WTR 8.646787 4.589532 6.165473
WTR 10.427861 4.309852 9.271183
WTR 11.053400 6.897440 12.046355
WTR 9.899893 6.917239 0.481399
WTR 7.432545 8.408473 5.593085
WTR 10.000867 8.202867 8.102007
POX 9.002333 9.783953 12.453376
POX 9.116979 11.794122 1.329434
WTR 10.258090 14.813366 3.579729
WTR 9.289263 12.918036 9.246100
WTR 6.351085 17.452819 10.482737
WTR 11.691252 -0.360468 -0.874653
POX 14.016819 1.868361 2.036497
POX 11.799961 0.494452 10.700237
WTR 9.550419 3.581888 13.057624
WTR 12.197062 6.970936 4.371206
WTR 14.530837 2.790783 9.165189
POX 14.406690 5.290093 12.227845
WTR 13.511614 5.617308 15.613381
WTR 13.410953 9.119091 1.501543
POX 10.715765 10.671351 5.071178
WTR 13.584934 6.128923 8.156918
WTR 14.162058 8.703901 11.320952
WTR 13.072352 13.055987 2.234306
POX 12.738527 14.237692 6.296643
WTR 13.578777 10.637947 7.439892
WTR 12.666337 11.151364 13.608510
64
Lattice="14.880660884926352 0 0 0 14.880660884926352 0 0 0 14.880660884926352" Properties=species:S:1:pos:R:3 Step=13
POX 3.357867 2.401845 2.516819
WTR 1.683595 1.668144 5.526134
WTR 2.653244 2.550469 10.821594
WTR 0.070697 1.623844 12.955900
POX 1.609483 7.043887 2.824106
WTR 2.127506 5.222501 6.163118
WTR 3.377031 8.179577 7.005883
WTR 2.520018 4.864826 14.837980
WTR 1.600586 8.882929 -1.563256
WTR 1.004079 9.840695 4.885725
WTR 2.228342 11.460722 7.952345
WTR 3.003926 6.344481 10.655656
WTR 3.826033 13.365700 4.846945
WTR 2.562489 14.870938 8.475631
WTR -0.643269 12.764974 10.781053
POX 1.259716 11.649083 16.105017
WTR 7.098753 3.659184 2.256811
POX 6.523017 1.652707 5.170783
WTR 4.841334 4.491032 7.915502
POX 2.749641 -1.379129 12.724579
WTR 7.927643 7.791975 2.349944
WTR 5.411682 5.599146 4.542703
WTR 6.991977 6.763718 10.215399
POX 5.866244 6.285632 14.365130
WTR 5.734942 10.449610 -1.206913
WTR 4.473210 9.757799 3.488937
POX 6.820931 10.077662 8.827479
WTR 3.184642 10.216147 10.755620
WTR 4.716516 13.023873 1.459521
WTR 7.216637 12.753355 5.357665
WTR 5.524176 13.253669 9.249869
POX 7.318610 13.653030 12.304107
POX 8.370296 1.199876 0.282906
WTR 12.609802 2.873008 5.164948
WTR 9.458377 1.246654 6.801943
WTR 5.372132 2.641445 13.928603
WTR 10.808060 3.367563 2.348618
WTR 9.306739 4.822214 6.243023
WTR 10.130777 3.649844 9.530038
WTR 11.446478 7.343837 11.954862
WTR 10.571872 6.749735 0.478442
WTR 7.768387 8.621438 5.657054
WTR 10.471650 8.218690 8.255609
POX 8.851814 9.843253 12.513538
POX 9.226416 12.067339 1.136739
WTR 9.854116 14.975136 3.511032
WTR 9.529477 12.470408 9.274921
WTR 6.329386 17.552458 10.442726
WTR 11.887993 -0.249493 -0.509751
POX 14.301078 1.774934 1.920076
POX 11.564697 0.337725 10.469796
WTR 9.887701 4.005940 12.963297
WTR 11.933433 6.489807 4.521458
WTR 14.341944 2.709561 9.252338