34
Lattice="11.20461838071637 0 0 0 11.20461838071637 0 0 0 11.20461838071637" Properties=species:S:1:pos:R:3 Step=0
WTR 0.825698 1.431158 2.934347
WTR 2.918280 1.356285 5.446833
POX 0.412502 2.878313 7.473154
POX 1.072995 2.967486 10.858674
WTR 2.817643 6.301328 1.890705
WTR 2.340777 4.885967 5.182086
POX 3.890516 3.815372 8.077509
POX 1.690032 6.221333 9.206744
WTR 2.249243 9.688772 2.277717
POX 0.607427 7.835341 4.640611
POX 10.797104 10.348647 6.775825
POX 1.852240 9.985186 10.017591
POX 3.093555 9.232135 6.887415
POX 5.051599 0.563638 1.883877
POX 4.936177 3.669937 0.386035
WTR 6.107505 2.175776 5.631528
WTR 6.146949 1.430168 8.965147
WTR 6.330078 5.437884 2.899596
WTR 5.558614 5.995368 6.154819
WTR 6.206080 6.281410 9.331340
POX 5.113338 8.456473 3.975600
POX 6.674399 8.506567 0.898828
WTR 6.852742 10.185134 6.427816
WTR 5.448434 9.543221 9.209020
WTR 8.870317 1.706689 1.748772
WTR 9.345880 1.811084 4.996321
WTR 9.240680 1.663368 9.639820
POX 8.641479 4.798195 0.151563
POX 10.878689 4.771197 2.778369
WTR 8.505347 5.015976 5.232701
WTR 9.550700 5.699367 8.142853
WTR 10.356091 8.036079 1.274465
WTR 8.546810 8.369384 4.367564
WTR 8.842364 8.728872 9.265208
34
Lattice="11.20461838071637 0 0 0 11.20461838071637 0 0 0 11.20461838071637" Properties=species:S:1:pos:R:3 Step=1
WTR 0.820399 1.455673 2.863304
WTR 2.892947 1.343006 5.384003
POX 0.393267 2.857702 7.463487
POX 1.053760 2.946876 10.849007
WTR 2.816952 6.355076 1.834767
WTR 2.351415 4.911557 5.239359
POX 3.914388 3.791298 8.071035
POX 1.713904 6.197259 9.200270
WTR 2.290682 9.675582 2.323302
POX 0.588333 7.865317 4.652931
POX 10.778010 10.378622 6.788146
POX 1.838781 10.026162 10.013513
POX 3.080097 9.273112 6.883337
POX 5.032402 0.574173 1.906108
POX 4.916980 3.680472 0.408265
WTR 6.065003 2.138159 5.615223
WTR 6.171632 1.495678 8.930056
WTR 6.353708 5.453714 2.829198
WTR 5.500256 5.983022 6.142463
WTR 6.221474 6.223136 9.326237
POX 5.102860 8.432483 3.980682
POX 6.663921 8.482577 0.903909
WTR 6.896789 10.160408 6.465545
WTR 5.431429 9.554944 9.140173
WTR 8.909026 1.656628 1.740325
WTR 9.372176 1.755680 4.983762
WTR 9.241954 1.707456 9.689143
POX 8.638788 4.780150 0.170769
POX 10.875998 4.753151 2.797575
WTR 8.570776 5.000778 5.243858
WTR 9.591544 5.761358 8.155642
WTR 10.399359 7.996357 1.296127
WTR 8.570099 8.365011 4.423106
WTR 8.786955 8.766936 9.268554
34
Lattice="11.20461838071637 0 0 0 11.20461838071637 0 0 0 11.20461838071637" Properties=species:S:1:pos:R:3 Step=2
WTR 0.815806 1.479228 2.791662
WTR 2.866856 1.329056 5.320825
POX 0.374143 2.837165 7.453651
POX 1.034635 2.926338 10.839172
WTR 2.816050 6.409725 1.778335
WTR 2.362234 4.937648 5.295261
POX 3.937981 3.767115 8.064784
POX 1.737497 6.173075 9.194020
WTR 2.331789 9.662792 2.368528
POX 0.569466 7.894798 4.665861
POX 10.759143 10.408103 6.801075
POX 1.824476 10.067731 10.008964
POX 3.065791 9.314680 6.878788
POX 5.012705 0.584506 1.928261
POX 4.897282 3.690806 0.430418
WTR 6.022892 2.101737 5.597668
WTR 6.198136 1.559976 8.895275
WTR 6.380325 5.470587 2.761095
WTR 5.443828 5.969891 6.130201
WTR 6.237049 6.164941 9.320856
POX 5.092186 8.408951 3.985292
POX 6.653246 8.459045 0.908519
WTR 6.943252 10.137678 6.503363
WTR 5.415861 9.566179 9.075836
WTR 8.947008 1.605574 1.732097
WTR 9.397726 1.700273 4.970420
WTR 9.242818 1.749785 9.737923
POX 8.636771 4.762061 0.189897
POX 10.873982 4.735062 2.816703
WTR 8.635151 4.985244 5.256070
WTR 9.632661 5.824622 8.168802
WTR 10.443120 7.955729 1.317571
WTR 8.588690 8.359291 4.477330
WTR 8.730286 8.806190 9.271917
34
Lattice="11.20461838071637 0 0 0 11.20461838071637 0 0 0 11.20461838071637" Properties=species:S:1:pos:R:3 Step=3
WTR 0.812779 1.500905 2.719167
WTR 2.839230 1.314464 5.256363
POX 0.355452 2.816929 7.443382
POX 1.015945 2.906102 10.828902
WTR 2.814733 6.465640 1.720573
WTR 2.372168 4.965069 5.349985
POX 3.960930 3.742564 8.058895
POX 1.760445 6.148524 9.188130
WTR 2.372016 9.651102 2.413199
POX 0.551354 7.923362 4.679960
POX 10.741031 10.436667 6.815175
POX 1.808638 10.110431 10.003492
POX 3.049954 9.357381 6.873316
POX 4.992026 0.594518 1.950243
POX 4.876604 3.700817 0.452401
WTR 5.981146 2.065648 5.578260
WTR 6.228661 1.621713 8.861153
WTR 6.411001 5.489337 2.697035
WTR 5.390080 5.955633 6.117898
WTR 6.253049 6.106564 9.314941
POX 5.081315 8.386131 3.989119
POX 6.642375 8.436225 0.912346
WTR 6.993168 10.117311 6.540227
WTR 5.402730 9.576794 9.019398
WTR 8.984187 1.552886 1.724292
WTR 9.421854 1.645170 4.955206
WTR 9.242599 1.790024 9.785518
POX 8.636055 4.743923 0.208831
POX 10.873266 4.716924 2.835637
WTR 8.697539 4.969329 5.270708
WTR 9.674264 5.889888 8.182606
WTR 10.487821 7.913805 1.338832
WTR 8.600341 8.352036 4.530502
WTR 8.671922 8.847235 9.275203
34
Lattice="11.20461838071637 0 0 0 11.20461838071637 0 0 0 11.20461838071637" Properties=species:S:1:pos:R:3 Step=4
WTR 0.812371 1.519459 2.646168
WTR 2.809333 1.299266 5.189735
POX 0.337635 2.797407 7.432378
POX 0.998128 2.886581 10.817898
WTR 2.812901 6.523042 1.660628
WTR 2.379831 4.994474 5.403454
POX 3.982690 3.717442 8.053494
POX 1.782206 6.123403 9.182729
WTR 2.410363 9.641369 2.457086
POX 0.534621 7.950391 4.695868
POX 10.724298 10.463697 6.831082
POX 1.790612 10.154851 9.996627
POX 3.031927 9.401800 6.866452
POX 4.969889 0.604092 1.971939
POX 4.854466 3.710391 0.474096
WTR 5.939701 2.029094 5.556436
WTR 6.266021 1.679135 8.828226
WTR 6.446471 5.510620 2.639127
WTR 5.339932 5.940102 6.105656
WTR 6.269759 6.047801 9.308238
POX 5.070357 8.364321 3.991898
POX 6.631417 8.414415 0.915126
WTR 7.047574 10.100039 6.575142
WTR 5.392587 9.586722 8.974103
WTR 9.020166 1.497897 1.717235
WTR 9.443793 1.591081 4.936695
WTR 9.240426 1.827394 9.830727
POX 8.637370 4.725800 0.227316
POX 10.874580 4.698802 2.854122
WTR 8.757152 4.952974 5.289504
WTR 9.716372 5.957885 8.197190
WTR 10.533929 7.870276 1.359852
WTR 8.602747 8.342839 4.582684
WTR 8.611665 8.890542 9.278414
34
Lattice="11.20461838071637 0 0 0 11.20461838071637 0 0 0 11.20461838071637" Properties=species:S:1:pos:R:3 Step=5
WTR 0.815817 1.533271 2.573879
WTR 2.776532 1.283550 5.120135
POX 0.321344 2.779271 7.420250
POX 0.981836 2.868444 10.805770
WTR 2.810562 6.581895 1.597751
WTR 2.383429 5.026285 5.455374
POX 4.002542 3.691693 8.048706
POX 1.802058 6.097654 9.177942
WTR 2.445202 9.634631 2.499834
POX 0.519871 7.975049 4.714242
POX 10.709548 10.488355 6.849456
POX 1.769986 10.201451 9.988001
POX 3.011301 9.448401 6.857826
POX 4.945931 0.613163 1.993216
POX 4.830508 3.719462 0.495374
WTR 5.898386 1.991394 5.531753
WTR 6.313351 1.730137 8.797131
WTR 6.486928 5.534616 2.589970
WTR 5.294751 5.923353 6.093754
WTR 6.287467 5.988616 9.300525
POX 5.059549 8.343944 3.993467
POX 6.620609 8.394038 0.916694
WTR 7.107062 10.087019 6.607020
WTR 5.385449 9.595924 8.942700
WTR 9.054169 1.439975 1.711335
WTR 9.462647 1.539170 4.913227
WTR 9.235331 1.860555 9.871728
POX 8.641551 4.707849 0.244952
POX 10.878761 4.680851 2.871758
WTR 8.813078 4.936159 5.314433
WTR 9.758701 6.029220 8.212566
WTR 10.581770 7.825019 1.380442
WTR 8.593976 8.330968 4.633587
WTR 8.549667 8.936331 9.281747
34
Lattice="11.20461838071637 0 0 0 11.20461838071637 0 0 0 11.20461838071637" Properties=species:S:1:pos:R:3 Step=6
WTR 0.824465 1.540388 2.504550
WTR 2.740417 1.267503 5.047329
POX 0.307372 2.763486 7.406400
POX 0.967865 2.852660 10.791920
WTR 2.807836 6.641809 1.531465
WTR 2.380792 5.060590 5.505200
POX 4.019707 3.665350 8.044688
POX 1.819223 6.071311 9.173924
WTR 2.474196 9.632048 2.540853
POX 0.507487 7.996319 4.735640
POX 10.697164 10.509624 6.870854
POX 1.746709 10.250453 9.977483
POX 2.988025 9.497403 6.847307
POX 4.920017 0.621769 2.013990
POX 4.804594 3.728068 0.516147
WTR 5.857195 1.952071 5.504013
WTR 6.373303 1.772637 8.768359
WTR 6.531712 5.560693 2.552542
WTR 5.256448 5.905658 6.082440
WTR 6.306431 5.929254 9.291649
POX 5.049257 8.325607 3.993676
POX 6.610317 8.375701 0.916903
WTR 7.171174 10.079880 6.635133
WTR 5.380694 9.604410 8.926858
WTR 9.085053 1.378646 1.706976
WTR 9.477494 1.490949 4.883203
WTR 9.226529 1.887576 9.906212
POX 8.649464 4.690328 0.261242
POX 10.886675 4.663330 2.888048
WTR 8.864303 4.918946 5.347376
WTR 9.800570 6.104242 8.228715
WTR 10.631451 7.778232 1.400250
WTR 8.573109 8.315258 4.682389
WTR 8.486991 8.984416 9.285743
34
Lattice="11.20461838071637 0 0 0 11.20461838071637 0 0 0 11.20461838071637" Properties=species:S:1:pos:R:3 Step=7
WTR 0.839424 1.538742 2.441407
WTR 2.700937 1.251444 4.971801
POX 0.296519 2.751260 7.390084
POX 0.957012 2.840434 10.775605
WTR 2.804996 6.702017 1.461742
WTR 2.369649 5.097091 5.552195
POX 4.033600 3.638391 8.041650
POX 1.833115 6.044351 9.170886
WTR 2.494428 9.634724 2.579316
POX 0.497440 8.013169 4.760341
POX 10.687117 10.526474 6.895555
POX 1.721288 10.301771 9.965279
POX 2.962603 9.548721 6.835103
POX 4.892375 0.630084 2.034135
POX 4.776953 3.736384 0.536292
WTR 5.816443 1.910945 5.473383
WTR 6.446772 1.805205 8.741865
WTR 6.579305 5.587219 2.530091
WTR 5.227280 5.887447 6.072082
WTR 6.326829 5.870321 9.281564
POX 5.039918 8.310090 3.992391
POX 6.600978 8.360183 0.915618
WTR 7.237891 10.080717 6.659241
WTR 5.377040 9.612297 8.926678
WTR 9.111482 1.313732 1.704318
WTR 9.487619 1.447939 4.845641
WTR 9.213927 1.906093 9.931827
POX 8.661867 4.673578 0.275714
POX 10.899077 4.646579 2.902521
WTR 8.909914 4.901416 5.389601
WTR 9.840849 6.182909 8.245337
WTR 10.682695 7.730553 1.418759
WTR 8.540766 8.294106 4.727620
WTR 8.425706 9.034074 9.291431
34
Lattice="11.20461838071637 0 0 0 11.20461838071637 0 0 0 11.20461838071637" Properties=species:S:1:pos:R:3 Step=8
WTR 0.861097 1.526597 2.387815
WTR 2.658527 1.235825 4.894895
POX 0.289408 2.743823 7.370587
POX 0.949901 2.832997 10.756107
WTR 2.802505 6.761488 1.389101
WTR 2.348222 5.135130 5.595619
POX 4.044075 3.610682 8.039839
POX 1.843591 6.016643 9.169074
WTR 2.502862 9.643401 2.614317
POX 0.489200 8.024824 4.788176
POX 10.678876 10.538129 6.923390
POX 1.694808 10.354981 9.951937
POX 2.936123 9.601930 6.821761
POX 4.863606 0.638399 2.053460
POX 4.748183 3.744699 0.555618
WTR 5.776636 1.868169 5.440457
WTR 6.531691 1.827580 8.716653
WTR 6.627708 5.611745 2.525502
WTR 5.209478 5.869178 6.063084
WTR 6.348724 5.812730 9.270352
POX 5.031901 8.298222 3.989516
POX 6.592961 8.348316 0.912743
WTR 7.303642 10.091877 6.679428
WTR 5.372647 9.619838 8.940625
WTR 9.132251 1.245456 1.703061
WTR 9.492815 1.411211 4.800796
WTR 9.198816 1.913742 9.946961
POX 8.679152 4.657924 0.288100
POX 10.916362 4.630925 2.914906
WTR 8.949380 4.883567 5.441284
WTR 9.878058 6.264767 8.261930
WTR 10.734911 7.683086 1.435343
WTR 8.499132 8.265660 4.767325
WTR 8.368815 9.084051 9.300363
34
Lattice="11.20461838071637 0 0 0 11.20461838071637 0 0 0 11.20461838071637" Properties=species:S:1:pos:R:3 Step=9
WTR 0.888836 1.503127 2.345869
WTR 2.614145 1.221173 4.818877
POX 0.286310 2.742093 7.347500
POX 0.946803 2.831266 10.733020
WTR 2.801066 6.819198 1.314522
WTR 2.315931 5.173850 5.634994
POX 4.051487 3.582058 8.039430
POX 1.851002 5.988018 9.168666
WTR 2.497055 9.658122 2.645131
POX 0.481824 8.030911 4.818497
POX 10.671501 10.544216 6.953712
POX 1.668746 10.409356 9.938230
POX 2.910062 9.656306 6.808055
POX 4.834557 0.647060 2.071726
POX 4.719135 3.753360 0.573884
WTR 5.738355 1.824166 5.406177
WTR 6.622646 1.840651 8.690524
WTR 6.674987 5.631658 2.540467
WTR 5.204416 5.851143 6.055669
WTR 6.372076 5.757505 9.258205
POX 5.025413 8.290657 3.985055
POX 6.586474 8.340751 0.908282
WTR 7.364109 10.115429 6.695683
WTR 5.365363 9.627415 8.965968
WTR 9.146637 1.174396 1.702274
WTR 9.493532 1.381072 4.750479
WTR 9.184482 1.908758 9.951654
POX 8.701241 4.643598 0.298470
POX 10.938452 4.616600 2.925277
WTR 8.982749 4.865547 5.501362
WTR 9.910643 6.349095 8.277908
WTR 10.787045 7.637275 1.449370
WTR 8.451291 8.228281 4.799641
WTR 8.319798 9.132824 9.314374
34
Lattice="11.20461838071637 0 0 0 11.20461838071637 0 0 0 11.20461838071637" Properties=species:S:1:pos:R:3 Step=10
WTR 0.920754 1.468835 2.315018
WTR 2.569263 1.207973 4.746945
POX 0.287059 2.746356 7.320991
POX 0.947552 2.835530 10.706511
WTR 2.801495 6.874506 1.239204
WTR 2.273797 5.212344 5.670263
POX 4.056493 3.552474 8.040390
POX 1.856009 5.958435 9.169625
WTR 2.475802 9.678055 2.671436
POX 0.474203 8.031605 4.850350
POX 10.663880 10.544911 6.985564
POX 1.644723 10.464056 9.924991
POX 2.886038 9.711006 6.794816
POX 4.806126 0.656378 2.088657
POX 4.690704 3.762678 0.590814
WTR 5.702119 1.779495 5.371665
WTR 6.711576 1.845965 8.660063
WTR 6.719912 5.645030 2.574881
WTR 5.212087 5.833358 6.049813
WTR 6.396789 5.705525 9.245375
POX 5.020331 8.287641 3.979177
POX 6.581392 8.337735 0.902404
WTR 7.415216 10.152396 6.707534
WTR 5.353114 9.635469 8.999517
WTR 9.154569 1.101242 1.700416
WTR 9.490777 1.357136 4.697802
WTR 9.176342 1.890442 9.948171
POX 8.727620 4.630599 0.307240
POX 10.964830 4.603600 2.934046
WTR 9.010594 4.847495 5.567860
WTR 9.937322 6.435160 8.292718
WTR 10.837885 7.594677 1.460311
WTR 8.400244 8.181150 4.823616
WTR 8.281970 9.179067 9.334994
34
Lattice="11.20461838071637 0 0 0 11.20461838071637 0 0 0 11.20461838071637" Properties=species:S:1:pos:R:3 Step=11
WTR 0.953732 1.425534 2.291410
WTR 2.525831 1.196681 4.683255
POX 0.291248 2.756159 7.291838
POX 0.951741 2.845333 10.677358
WTR 2.804792 6.927233 1.164338
WTR 2.224225 5.249727 5.701763
POX 4.059787 3.522134 8.042429
POX 1.859303 5.928094 9.171664
WTR 2.439391 9.701564 2.693359
POX 0.465310 8.027578 4.882723
POX 10.654987 10.540883 7.017937
POX 1.624240 10.518320 9.912953
POX 2.865556 9.765269 6.782777
POX 4.779052 0.666556 2.103964
POX 4.663629 3.772855 0.606122
WTR 5.668279 1.734689 5.338040
WTR 6.789335 1.845196 8.621062
WTR 6.762193 5.651153 2.626834
WTR 5.231179 5.815607 6.045271
WTR 6.422776 5.657326 9.232103
POX 5.016174 8.288930 3.972257
POX 6.577234 8.339024 0.895484
WTR 7.453844 10.202185 6.714090
WTR 5.334378 9.644411 9.038310
WTR 9.156507 1.026557 1.695577
WTR 9.485802 1.338667 4.646477
WTR 9.180994 1.859154 9.940672
POX 8.757516 4.618636 0.315032
POX 10.994727 4.591638 2.941839
WTR 9.033764 4.829504 5.638504
WTR 9.957388 6.522441 8.305943
WTR 10.886302 7.556713 1.467813
WTR 8.348170 8.124650 4.839733
WTR 8.257630 9.222179 9.362744
34
Lattice="11.20461838071637 0 0 0 11.20461838071637 0 0 0 11.20461838071637" Properties=species:S:1:pos:R:3 Step=12
WTR 0.983643 1.375975 2.268603
WTR 2.486246 1.187898 4.632936
POX 0.298361 2.770391 7.261260
POX 0.958854 2.859565 10.646780
WTR 2.812009 6.977526 1.090934
WTR 2.170466 5.285009 5.729996
POX 4.061897 3.491641 8.045000
POX 1.861412 5.897602 9.174235
WTR 2.389501 9.726398 2.711293
POX 0.454369 8.019840 4.914706
POX 10.644046 10.533146 7.049920
POX 1.608519 10.571437 9.902731
POX 2.849834 9.818386 6.772555
POX 4.753853 0.677631 2.117342
POX 4.638431 3.783930 0.619499
WTR 5.637065 1.690261 5.306397
WTR 6.848712 1.839920 8.569901
WTR 6.802191 5.650446 2.693087
WTR 5.259689 5.797628 6.041680
WTR 6.449949 5.613143 9.218608
POX 5.012200 8.293890 3.964855
POX 6.573261 8.343983 0.888083
WTR 7.477972 10.262589 6.714488
WTR 5.308600 9.654536 9.079942
WTR 9.153156 0.950660 1.686017
WTR 9.479829 1.324963 4.600113
WTR 9.203616 1.815910 9.933557
POX 8.790058 4.607212 0.322497
POX 11.027269 4.580213 2.949304
WTR 9.053041 4.811723 5.711113
WTR 9.970775 6.610546 8.317320
WTR 10.931222 7.524572 1.471703
WTR 8.296564 8.060346 4.849714
WTR 8.247628 9.262379 9.396697
34
Lattice="11.20461838071637 0 0 0 11.20461838071637 0 0 0 11.20461838071637" Properties=species:S:1:pos:R:3 Step=13
WTR 1.006099 1.323286 2.239427
WTR 2.452889 1.182474 4.601289
POX 0.307888 2.787433 7.230797
POX 0.968380 2.876607 10.616317
WTR 2.824087 7.025861 1.020087
WTR 2.116146 5.316936 5.755413
POX 4.063148 3.462112 8.047328
POX 1.862664 5.868073 9.176563
WTR 2.328966 9.749865 2.725696
POX 0.440907 8.009614 4.945516
POX 10.630584 10.522920 7.080731
POX 1.598412 10.622618 9.894758
POX 2.839728 9.869568 6.764582
POX 4.730846 0.689448 2.128449
POX 4.615423 3.795747 0.630606
WTR 5.608697 1.646800 5.277865
WTR 6.887549 1.831607 8.505617
WTR 6.840446 5.643949 2.769701
WTR 5.295432 5.779279 6.038660
WTR 6.478172 5.573053 9.205096
POX 5.007554 8.301686 3.957658
POX 6.568614 8.351780 0.880885
WTR 7.486498 10.330216 6.708350
WTR 5.276318 9.665976 9.122567
WTR 9.145239 0.873691 1.670492
WTR 9.473873 1.315543 4.561658
WTR 9.244643 1.762003 9.929081
POX 8.824345 4.595775 0.330175
POX 11.061556 4.568777 2.956981
WTR 9.068889 4.794449 5.783688
WTR 9.977994 6.698972 8.326673
WTR 10.971709 7.499157 1.471978
WTR 8.246729 7.990606 4.855873
WTR 8.251355 9.300558 9.434612
34
Lattice="11.20461838071637 0 0 0 11.20461838071637 0 0 0 11.20461838071637" Properties=species:S:1:pos:R:3 Step=14
WTR 1.017803 1.270547 2.198610
WTR 2.426905 1.181613 4.591507
POX 0.319370 2.805317 7.202076
POX 0.979863 2.894491 10.587597
WTR 2.841774 7.072916 0.952792
WTR 2.064787 5.344073 5.778381
POX 4.063768 3.435129 8.048457
POX 1.863284 5.841089 9.177693
WTR 2.261282 9.769077 2.737126
POX 0.424667 7.998185 4.974595
POX 10.614344 10.511490 7.109810
POX 1.594312 10.671067 9.889292
POX 2.835627 9.918016 6.759116
POX 4.710086 0.701720 2.136967
POX 4.594664 3.808019 0.639124
WTR 5.583352 1.604907 5.253527
WTR 6.909395 1.821626 8.430593
WTR 6.877437 5.632748 2.852812
WTR 5.336456 5.760551 6.035874
WTR 6.507309 5.536943 9.191738
POX 5.001426 8.311478 3.951339
POX 6.562486 8.361571 0.874566
WTR 7.479283 10.401254 6.695803
WTR 5.238946 9.678761 9.164910
WTR 9.133356 0.795593 1.648705
WTR 9.468658 1.310115 4.532806
WTR 9.299137 1.698755 9.926286
POX 8.859591 4.583840 0.338451
POX 11.096801 4.556842 2.965257
WTR 9.081415 4.778108 5.854624
WTR 9.980003 6.787113 8.333811
WTR 11.007053 7.480925 1.468697
WTR 8.199920 7.917933 4.860549
WTR 8.267072 9.338061 9.473727
34
Lattice="11.20461838071637 0 0 0 11.20461838071637 0 0 0 11.20461838071637" Properties=species:S:1:pos:R:3 Step=15
WTR 1.017741 1.220587 2.144755
WTR 2.407171 1.186756 4.602532
POX 0.332383 2.821908 7.176596
POX 0.992876 2.911081 10.562116
WTR 2.865600 7.119499 0.889578
WTR 2.019408 5.365046 5.799223
POX 4.063989 3.412593 8.047320
POX 1.863505 5.818554 9.176555
WTR 2.189900 9.781239 2.746304
POX 0.405449 7.986753 5.001641
POX 10.595126 10.500058 7.136855
POX 1.596149 10.716120 9.886440
POX 2.837465 9.963070 6.756264
POX 4.691321 0.714144 2.142664
POX 4.575898 3.820444 0.644821
WTR 5.561048 1.565050 5.234257
WTR 6.920608 1.811347 8.348953
WTR 6.913536 5.617473 2.939161
WTR 5.381345 5.741472 6.033065
WTR 6.537356 5.504444 9.178620
POX 4.993157 8.322571 3.946440
POX 6.554217 8.372665 0.869667
WTR 7.457291 10.472332 6.677119
WTR 5.198142 9.692929 9.206310
WTR 9.117898 0.715900 1.621423
WTR 9.464593 1.308422 4.513751
WTR 9.359948 1.627250 9.922249
POX 8.895301 4.570993 0.347561
POX 11.132511 4.543995 2.974367
WTR 9.090426 4.762986 5.922984
WTR 9.978000 6.874602 8.338722
WTR 11.036987 7.469781 1.462118
WTR 8.157252 7.844410 4.865874
WTR 8.292492 9.376463 9.511755
34
Lattice="11.20461838071637 0 0 0 11.20461838071637 0 0 0 11.20461838071637" Properties=species:S:1:pos:R:3 Step=16
WTR 1.006874 1.175745 2.080004
WTR 2.390739 1.199364 4.629363
POX 0.346474 2.835080 7.155659
POX 1.006966 2.924254 10.541179
WTR 2.895896 7.166652 0.830468
WTR 1.982447 5.378765 5.818133
POX 4.064107 3.396586 8.042821
POX 1.863623 5.802547 9.172057
WTR 2.117749 9.783921 2.754209
POX 0.383010 7.976340 5.026567
POX 10.572687 10.489645 7.161781
POX 1.603546 10.757207 9.886209
POX 2.844862 10.004156 6.756033
POX 4.674045 0.726479 2.145390
POX 4.558622 3.832779 0.647548
WTR 5.541568 1.527588 5.220613
WTR 6.927042 1.802551 8.264826
WTR 6.948917 5.597942 3.026135
WTR 5.429253 5.722050 6.030092
WTR 6.568494 5.474991 9.165747
POX 4.982306 8.334492 3.943320
POX 6.543367 8.384585 0.866547
WTR 7.422454 10.540071 6.652248
WTR 5.155291 9.708601 9.246622
WTR 9.098998 0.633752 1.590153
WTR 9.461828 1.310167 4.503506
WTR 9.421097 1.548205 9.913946
POX 8.931310 4.556900 0.357626
POX 11.168520 4.529901 2.984432
WTR 9.095489 4.749499 5.988565
WTR 9.973192 6.961366 8.341416
WTR 11.061694 7.465189 1.452574
WTR 8.119704 7.771740 4.873855
WTR 8.325285 9.417315 9.547483
34
Lattice="11.20461838071637 0 0 0 11.20461838071637 0 0 0 11.20461838071637" Properties=species:S:1:pos:R:3 Step=17
WTR 0.986892 1.137751 2.008111
WTR 2.374263 1.220711 4.665338
POX 0.361124 2.843034 7.140330
POX 1.021617 2.932207 10.525850
WTR 2.932800 7.215501 0.775179
WTR 1.955853 5.384641 5.834985
POX 4.064422 3.389104 8.034007
POX 1.863937 5.795065 9.163242
WTR 2.047098 9.775436 2.761983
POX 0.357170 7.967750 5.049391
POX 10.546846 10.481056 7.184605
POX 1.615978 10.793644 9.888530
POX 2.857294 10.040594 6.758354
POX 4.657644 0.738552 2.145050
POX 4.542222 3.844852 0.647207
WTR 5.524307 1.492965 5.212730
WTR 6.932714 1.797973 8.181977
WTR 6.983414 5.572962 3.111241
WTR 5.479672 5.702282 6.026983
WTR 6.601020 5.447983 9.153092
POX 4.968663 8.346943 3.942165
POX 6.529723 8.397037 0.865392
WTR 7.377516 10.600380 6.620542
WTR 5.111406 9.725970 9.285991
WTR 9.076587 0.548149 1.556685
WTR 9.460354 1.314975 4.500497
WTR 9.478969 1.462176 9.899194
POX 8.967673 4.541323 0.368615
POX 0.000265 4.514325 2.995421
WTR 9.096024 4.738103 6.051844
WTR 9.966650 7.047334 8.341841
WTR 11.081625 7.466345 1.440357
WTR 8.088274 7.701806 4.886615
WTR 8.363183 9.461878 9.580935
34
Lattice="11.20461838071637 0 0 0 11.20461838071637 0 0 0 11.20461838071637" Properties=species:S:1:pos:R:3 Step=18
WTR 0.959385 1.107205 1.933198
WTR 2.355133 1.251680 4.704195
POX 0.375763 2.844871 7.131244
POX 1.036256 2.934044 10.516765
WTR 2.976137 7.266914 0.723396
WTR 1.941092 5.382839 5.849137
POX 4.065095 3.391555 8.020358
POX 1.864610 5.797516 9.149594
WTR 1.979649 9.755361 2.770605
POX 0.328028 7.961531 5.070133
POX 10.517705 10.474837 7.205347
POX 1.632855 10.824463 9.893189
POX 2.874171 10.071413 6.763013
POX 4.641543 0.750215 2.141590
POX 4.526120 3.856514 0.643748
WTR 5.508253 1.462054 5.210147
WTR 6.940004 1.801505 8.104231
WTR 7.016412 5.540336 3.191431
WTR 5.532078 5.682228 6.024015
WTR 6.635244 5.422934 9.140664
POX 4.952284 8.359719 3.943062
POX 6.513345 8.409813 0.866289
WTR 7.325880 10.647872 6.580878
WTR 5.067312 9.745218 9.324617
WTR 9.050536 0.458337 1.522596
WTR 9.460080 1.322528 4.503054
WTR 9.531936 1.370083 9.876921
POX 9.004424 4.524159 0.380512
POX 0.037016 4.497160 3.007318
WTR 9.091467 4.729145 6.113125
WTR 9.959272 7.132051 8.339893
WTR 11.097276 7.472297 1.425707
WTR 8.064117 7.637342 4.906531
WTR 8.403763 9.510809 9.613091
34
Lattice="11.20461838071637 0 0 0 11.20461838071637 0 0 0 11.20461838071637" Properties=species:S:1:pos:R:3 Step=19
WTR 0.925741 1.083009 1.859782
WTR 2.331909 1.292447 4.740996
POX 0.389826 2.841233 7.128347
POX 1.050319 2.930407 10.513868
WTR 3.025288 7.321320 0.674911
WTR 1.938990 5.374425 5.859367
POX 4.066002 3.404200 8.002089
POX 1.865518 5.810160 9.131325
WTR 1.916680 9.724932 2.780545
POX 0.296147 7.957916 5.088578
POX 10.485824 10.471221 7.223792
POX 1.653526 10.848429 9.899714
POX 2.894842 10.095379 6.769538
POX 4.625305 0.761339 2.135038
POX 4.509882 3.867639 0.637195
WTR 5.491759 1.436343 5.211617
WTR 6.950380 1.817377 8.035394
WTR 7.047006 5.497282 3.262905
WTR 5.585578 5.662066 6.021780
WTR 6.671404 5.399538 9.128547
POX 4.933549 8.372620 3.946051
POX 6.494609 8.422714 0.869279
WTR 7.271386 10.676311 6.532425
WTR 5.023871 9.766426 9.362616
WTR 9.020822 0.364112 1.489309
WTR 9.460874 1.332502 4.509651
WTR 9.579669 1.274119 9.847314
POX 9.041453 4.505460 0.393227
POX 0.074045 4.478462 3.020034
WTR 9.081500 4.722753 6.172604
WTR 9.951765 7.214356 8.335509
WTR 11.109104 7.481968 1.408823
WTR 8.048400 7.582026 4.935980
WTR 8.444150 9.563601 9.645581
34
Lattice="11.20461838071637 0 0 0 11.20461838071637 0 0 0 11.20461838071637" Properties=species:S:1:pos:R:3 Step=20
WTR 0.887075 1.062277 1.793038
WTR 2.304328 1.342178 4.772378
POX 0.402828 2.834437 7.130732
POX 1.063321 2.923610 10.516252
WTR 3.079159 7.378732 0.629553
WTR 1.949555 5.361241 5.864050
POX 4.066722 3.426009 7.980183
POX 1.866237 5.831969 9.109419
WTR 1.859157 9.686860 2.791593
POX 0.262571 7.956773 5.104215
POX 10.452248 10.470078 7.239429
POX 1.677300 10.864343 9.907302
POX 2.918615 10.111292 6.777126
POX 4.608655 0.771823 2.125517
POX 4.493232 3.878122 0.627674
WTR 5.472521 1.417928 5.215179
WTR 6.965108 1.848160 7.978056
WTR 7.074589 5.441456 3.321923
WTR 5.638849 5.642076 6.021177
WTR 6.709658 5.377618 9.116896
POX 4.913110 8.385440 3.951137
POX 6.474171 8.435534 0.874364
WTR 7.217741 10.680637 6.475838
WTR 4.982073 9.789533 9.400059
WTR 8.987618 0.265805 1.457959
WTR 9.462576 1.344562 4.519002
WTR 9.622766 1.178682 9.812054
POX 9.078520 4.485400 0.406612
POX 0.111112 4.458401 3.033418
WTR 9.066209 4.718743 6.230466
WTR 9.944594 7.292222 8.328800
WTR 11.117509 7.494188 1.389836
WTR 8.041752 7.539495 4.976567
WTR 8.480873 9.618047 9.680445
34
Lattice="11.20461838071637 0 0 0 11.20461838071637 0 0 0 11.20461838071637" Properties=species:S:1:pos:R:3 Step=21
WTR 0.843986 1.040970 1.738467
WTR 2.273101 1.399039 4.796375
POX 0.414446 2.827819 7.136911
POX 1.074939 2.916993 10.522432
WTR 3.136296 7.438909 0.587025
WTR 1.972052 5.345468 5.861499
POX 4.066690 3.455149 7.956079
POX 1.866206 5.861110 9.085315
WTR 1.807861 9.644555 2.802987
POX 0.228646 7.957598 5.116149
POX 10.418323 10.470903 7.251364
POX 1.703473 10.871383 9.914902
POX 2.944789 10.118333 6.784726
POX 4.591439 0.781610 2.113208
POX 4.476017 3.887909 0.615365
WTR 5.448071 1.409067 5.218722
WTR 6.985518 1.893132 7.932316
WTR 7.099533 5.372148 3.366151
WTR 5.690404 5.622616 6.023240
WTR 6.750011 5.357042 9.105894
POX 4.891775 8.397996 3.958365
POX 6.452835 8.448090 0.881592
WTR 7.167819 10.659096 6.413663
WTR 4.943028 9.814367 9.437069
WTR 8.951263 0.164009 1.429286
WTR 9.465010 1.358404 4.530111
WTR 9.662696 1.090933 9.774517
POX 9.115359 4.464199 0.420506
POX 0.147951 4.437201 3.047312
WTR 9.046066 4.716622 6.287048
WTR 9.937906 7.363263 8.320161
WTR 11.122759 7.507761 1.368733
WTR 8.043656 7.511769 5.028240
WTR 8.509832 9.669614 9.719761
34
Lattice="11.20461838071637 0 0 0 11.20461838071637 0 0 0 11.20461838071637" Properties=species:S:1:pos:R:3 Step=22
WTR 0.796309 1.015010 1.700809
WTR 2.239564 1.460626 4.811897
POX 0.424497 2.824643 7.145391
POX 1.084990 2.913817 10.530911
WTR 3.194992 7.501559 0.546789
WTR 2.005339 5.329183 5.850268
POX 4.065378 3.489695 7.931227
POX 1.864894 5.895655 9.060462
WTR 1.763527 9.601275 2.813686
POX 0.195725 7.959545 5.123051
POX 10.385402 10.472850 7.258265
POX 1.731306 10.869388 9.921457
POX 2.972622 10.116337 6.791281
POX 4.573558 0.790713 2.098286
POX 4.458135 3.897012 0.600443
WTR 5.416618 1.411412 5.220861
WTR 7.012759 1.948926 7.895932
WTR 7.123313 5.290587 3.395421
WTR 5.738990 5.604100 6.028763
WTR 6.792546 5.337655 9.095736
POX 4.870381 8.410176 3.967833
POX 6.431441 8.460270 0.891060
WTR 7.123214 10.613487 6.349326
WTR 4.907989 9.840722 9.473907
WTR 8.912159 0.059249 1.403775
WTR 9.468000 1.373822 4.542286
WTR 9.701934 1.021122 9.739757
POX 9.151800 4.442026 0.434816
POX 0.184392 4.415027 3.061623
WTR 9.021763 4.715693 6.342896
WTR 9.931494 7.425059 8.310333
WTR 11.124966 7.521567 1.345273
WTR 8.052342 7.498410 5.089239
WTR 8.526416 9.711215 9.765161
34
Lattice="11.20461838071637 0 0 0 11.20461838071637 0 0 0 11.20461838071637" Properties=species:S:1:pos:R:3 Step=23
WTR 0.743617 0.981695 1.682803
WTR 2.205488 1.524186 4.818051
POX 0.432915 2.827164 7.155205
POX 1.093408 2.916338 10.540725
WTR 3.252899 7.566084 0.508276
WTR 2.048007 5.314210 5.829418
POX 4.062420 3.527866 7.906937
POX 1.861935 5.933826 9.036173
WTR 1.727200 9.559879 2.822525
POX 0.165055 7.961515 5.123292
POX 10.354732 10.474820 7.258507
POX 1.759839 10.858964 9.926146
POX 3.001154 10.105913 6.795970
POX 4.555022 0.799159 2.080948
POX 4.439599 3.905458 0.583105
WTR 5.377969 1.425274 5.221493
WTR 7.047331 2.011412 7.865879
WTR 7.147776 5.199431 3.411180
WTR 5.783659 5.587131 6.037915
WTR 6.837250 5.319377 9.086697
POX 4.849830 8.421870 3.979659
POX 6.410890 8.471964 0.902886
WTR 7.084099 10.548037 6.285724
WTR 4.878669 9.868259 9.510717
WTR 8.870924 11.157133 1.382199
WTR 9.471370 1.390663 4.555042
WTR 9.743180 0.981096 9.714070
POX 9.187592 4.419059 0.449448
POX 0.220184 4.392061 3.076254
WTR 8.994189 4.715193 6.398387
WTR 9.924905 7.474974 8.300408
WTR 11.124072 7.534556 1.319084
WTR 8.065260 7.497216 5.156684
WTR 8.526281 9.734669 9.816935
34
Lattice="11.20461838071637 0 0 0 11.20461838071637 0 0 0 11.20461838071637" Properties=species:S:1:pos:R:3 Step=24
WTR 0.686113 0.940933 1.684163
WTR 2.173007 1.586513 4.813872
POX 0.439741 2.836122 7.166119
POX 1.100234 2.925296 10.551639
WTR 3.306382 7.630964 0.471207
WTR 2.098079 5.302217 5.798883
POX 4.057729 3.567765 7.884504
POX 1.857245 5.973725 9.013739
WTR 1.700496 9.523018 2.828238
POX 0.137677 7.962476 5.115705
POX 10.327354 10.475781 7.250919
POX 1.787556 10.841580 9.928550
POX 3.028872 10.088530 6.798374
POX 4.536114 0.806913 2.061577
POX 4.420692 3.913212 0.563734
WTR 5.333947 1.449239 5.221613
WTR 7.088644 2.076500 7.839745
WTR 7.174161 5.102382 3.415637
WTR 5.823724 5.572659 6.049932
WTR 6.883561 5.302391 9.079254
POX 4.831255 8.432829 3.993920
POX 6.392316 8.482923 0.917147
WTR 7.049679 10.468733 6.224841
WTR 4.857578 9.896285 9.547064
WTR 8.828770 11.050926 1.366249
WTR 9.474917 1.408682 4.567915
WTR 9.787096 0.978539 9.703281
POX 9.222070 4.395705 0.464143
POX 0.254662 4.368707 3.090949
WTR 8.964672 4.714413 6.453178
WTR 9.917647 7.510062 8.291758
WTR 11.119929 7.545736 1.289986
WTR 8.079604 7.505441 5.227027
WTR 8.507844 9.735235 9.872586
34
Lattice="11.20461838071637 0 0 0 11.20461838071637 0 0 0 11.20461838071637" Properties=species:S:1:pos:R:3 Step=25
WTR 0.624672 0.895065 1.701497
WTR 2.143984 1.644708 4.798696
POX 0.445290 2.850858 7.178484
POX 1.105783 2.940031 10.564004
WTR 3.350912 7.694143 0.435331
WTR 2.153204 5.294618 5.759480
POX 4.051459 3.607542 7.865024
POX 1.850974 6.013503 8.994259
WTR 1.685061 9.492690 2.829621
POX 0.114075 7.961993 5.100636
POX 10.303752 10.475298 7.235850
POX 1.812611 10.819339 9.928764
POX 3.053926 10.066289 6.798588