27
Lattice="11.209513607476866 0 0 0 11.209513607476866 0 0 0 11.209513607476866" Properties=species:S:1:pos:R:3 Step=0
POX 1.856487 1.773225 1.872861
POX 1.853783 1.854513 5.573357
WTR 1.812550 1.888658 9.300933
WTR 1.826727 5.632135 1.871041
WTR 1.797723 5.608560 5.546678
WTR 1.922948 5.672872 9.342011
POX 1.929409 9.263267 1.869833
WTR 1.789460 9.324427 5.527330
POX 1.798547 9.361446 9.296174
WTR 5.533931 1.817088 1.843285
POX 5.600043 1.809288 5.638978
WTR 5.600194 1.866440 9.322432
WTR 5.659899 5.619604 1.801486
WTR 5.645009 5.689073 5.603033
WTR 5.677249 5.570327 9.357073
WTR 5.592054 9.331168 1.916755
WTR 5.613632 9.423778 5.616120
WTR 5.528582 9.314892 9.407610
WTR 9.323891 1.779191 1.819594
WTR 9.261083 1.964765 5.690107
WTR 9.398496 1.886606 9.396122
WTR 9.276876 5.568238 1.868890
POX 9.314658 5.521403 5.694218
WTR 9.327038 5.606533 9.300691
WTR 9.295178 9.320176 1.929893
POX 9.382592 9.321248 5.515829
WTR 9.397198 9.302206 9.356542
27
Lattice="11.209513607476866 0 0 0 11.209513607476866 0 0 0 11.209513607476866" Properties=species:S:1:pos:R:3 Step=1
POX 1.894042 1.656902 1.235366
POX 1.491075 1.952133 5.690680
WTR 1.832262 1.977355 9.062639
WTR 2.010175 5.526714 1.657796
WTR 1.825389 5.739443 5.636835
WTR 2.011308 5.717420 9.434717
POX 1.553125 8.914261 2.280168
WTR 2.149776 9.059914 5.689082
POX 1.834331 9.579935 9.503199
WTR 5.830536 1.973334 2.228502
POX 5.853840 1.542021 6.348996
WTR 5.443157 1.548743 9.914379
WTR 5.586124 5.619471 1.620501
WTR 5.625027 5.424449 5.408802
WTR 5.598646 5.106303 9.488591
WTR 5.670824 9.502844 1.704934
WTR 5.592002 8.941192 5.884478
WTR 5.778355 9.117743 9.430740
WTR 9.281851 1.764259 1.885760
WTR 9.301460 2.044316 5.406402
WTR 9.452215 1.885574 9.742769
WTR 9.158401 5.729264 1.463211
POX 9.353101 5.600445 5.455503
WTR 9.100194 5.745888 9.057119
WTR 9.142251 9.302555 1.749082
POX 9.148430 9.779098 5.735832
WTR 9.226313 9.654285 9.404919
27
Lattice="11.209513607476866 0 0 0 11.209513607476866 0 0 0 11.209513607476866" Properties=species:S:1:pos:R:3 Step=2
POX 1.966066 1.671001 1.003797
POX 1.397364 1.918319 5.376987
WTR 2.061581 2.603380 8.741633
WTR 2.025779 4.928652 1.807705
WTR 2.091038 5.655392 5.646563
WTR 1.874234 5.837358 9.281587
POX 1.222277 8.519167 2.811621
WTR 2.269480 9.365704 6.260439
POX 1.896818 9.732256 9.528787
WTR 5.796231 2.169598 3.029019
POX 5.912648 1.330891 6.888266
WTR 5.309911 1.135369 10.854215
WTR 5.486385 5.816551 1.796184
WTR 5.354185 4.908805 5.253737
WTR 5.497054 4.704570 9.112433
WTR 5.307528 9.639451 1.899230
WTR 5.524210 8.384491 5.831359
WTR 5.787937 8.693591 9.371082
WTR 9.465101 1.819839 2.079290
WTR 8.878111 2.423967 5.196075
WTR 9.404487 2.213221 9.546577
WTR 9.360743 5.671232 1.277298
POX 9.411602 5.809202 5.035287
WTR 9.121776 5.967798 9.134845
WTR 8.941141 9.317369 1.761517
POX 9.134436 10.040923 5.850757
WTR 9.190575 9.756000 9.551539
27
Lattice="11.209513607476866 0 0 0 11.209513607476866 0 0 0 11.209513607476866" Properties=species:S:1:pos:R:3 Step=3
POX 1.964156 1.362726 1.113468
POX 1.371741 1.788310 4.812920
WTR 2.402204 2.881118 8.492714
WTR 1.965393 5.157129 2.155612
WTR 2.018101 5.698635 5.693207
WTR 1.592141 6.429184 9.353367
POX 0.976682 8.346089 3.102266
WTR 2.322888 9.849225 5.990312
POX 1.913384 9.802163 9.874324
WTR 5.501813 1.907710 3.539392
POX 5.688781 1.018442 7.480256
WTR 5.656278 0.874701 0.002201
WTR 5.603394 6.142257 1.722018
WTR 5.383283 4.545289 5.447614
WTR 5.533509 4.440185 8.894902
WTR 4.588218 9.608299 2.442218
WTR 5.857370 8.047209 5.499242
WTR 5.597747 8.197575 9.428145
WTR 9.697676 1.770255 1.787468
WTR 8.591376 2.693576 5.485220
WTR 9.354620 2.578093 9.164480
WTR 9.620035 5.446614 1.148255
POX 9.462755 6.266442 4.745319
WTR 9.180425 6.273165 8.652064
WTR 8.587340 9.363171 2.078228
POX 9.269528 10.094817 5.866995
WTR 9.350566 9.881646 9.700598
27
Lattice="11.209513607476866 0 0 0 11.209513607476866 0 0 0 11.209513607476866" Properties=species:S:1:pos:R:3 Step=4
POX 2.188614 1.458245 1.018426
POX 1.145961 1.911336 4.809335
WTR 2.353666 2.788979 8.386876
WTR 2.236477 4.730076 2.097062
WTR 1.786761 5.831058 6.017914
WTR 1.248478 6.091846 9.569957
POX 0.831161 8.648256 2.947812
WTR 2.808682 10.029676 6.473352
POX 2.007438 9.677965 9.868888
WTR 5.184207 1.158373 3.607212
POX 5.409754 0.456427 8.007667
WTR 6.387331 0.766895 0.284335
WTR 5.901461 6.267166 1.503986
WTR 5.418574 4.594194 5.734276
WTR 5.818195 4.447834 9.379121
WTR 3.984927 9.528654 2.937862
WTR 6.193730 8.035601 5.317750
WTR 5.396640 7.876678 9.517121
WTR 9.383760 1.686063 1.610031
WTR 8.568307 2.745221 5.725521
WTR 9.479478 2.810491 8.888914
WTR 9.755709 5.224566 0.627457
POX 9.195672 6.358295 4.618693
WTR 9.091471 6.706775 8.087842
WTR 7.993740 9.379345 2.370202
POX 9.462433 10.352162 5.969182
WTR 9.357353 10.142192 9.935395
27
Lattice="11.209513607476866 0 0 0 11.209513607476866 0 0 0 11.209513607476866" Properties=species:S:1:pos:R:3 Step=5
POX 2.526196 1.652485 0.696679
POX 0.894568 2.206877 5.128695
WTR 2.235106 2.501128 8.425355
WTR 2.606582 5.178874 2.310027
WTR 1.545080 6.118775 6.144424
WTR 1.183151 5.397611 9.872800
POX 0.424373 8.988061 2.599081
WTR 2.624311 9.634283 6.044163
POX 1.978366 9.334617 9.807889
WTR 5.212540 1.367221 4.181858
POX 5.446866 0.069540 8.388850
WTR 6.516306 0.788642 0.520210
WTR 6.177084 6.125483 1.583159
WTR 5.207942 4.475859 5.775623
WTR 6.105332 4.086548 10.027140
WTR 4.346432 9.169420 2.731933
WTR 6.035743 8.426974 5.728196
WTR 5.319263 7.829956 9.494517
WTR 9.558601 1.766718 1.918314
WTR 8.335320 2.762084 5.454274
WTR 9.800078 2.807924 8.980676
WTR 9.617299 5.256827 0.458426
POX 8.957574 6.049912 4.300303
WTR 8.909871 7.235361 8.191545
WTR 7.704884 9.337096 2.485796
POX 9.599116 10.547817 6.198332
WTR 9.373930 10.291518 10.161255
27
Lattice="11.209513607476866 0 0 0 11.209513607476866 0 0 0 11.209513607476866" Properties=species:S:1:pos:R:3 Step=6
POX 2.801093 1.813156 0.683832
POX 0.877593 2.639851 5.129606
WTR 2.604704 1.980466 8.234453
WTR 2.743212 5.808884 2.725722
WTR 1.176552 6.346827 6.196022
WTR 1.652903 5.221078 10.132666
POX 0.073959 9.321829 2.260084
WTR 2.059220 9.519125 5.294903
POX 1.761578 8.922981 9.751483
WTR 4.935314 1.462165 4.638283
POX 5.624727 11.193237 8.550518
WTR 6.215631 0.950867 1.052398
WTR 6.125606 5.829280 1.881855
WTR 4.750443 4.771454 6.063541
WTR 6.201014 3.552314 10.112792
WTR 4.081466 8.853547 2.000825
WTR 5.988417 8.545082 6.253899
WTR 5.389030 7.280854 9.633855
WTR 10.265230 1.936797 2.360908
WTR 7.985326 2.495825 5.457882
WTR 9.947177 2.590979 8.938567
WTR 9.344549 5.509646 0.589399
POX 8.920072 5.859257 4.064581
WTR 8.876306 7.372294 8.379400
WTR 7.890853 9.359131 2.654305
POX 9.618006 10.453843 6.466823
WTR 9.500836 10.403385 10.438104
27
Lattice="11.209513607476866 0 0 0 11.209513607476866 0 0 0 11.209513607476866" Properties=species:S:1:pos:R:3 Step=7
POX 2.874378 1.931073 0.877209
POX 1.005148 3.111982 5.162610
WTR 2.728973 1.485565 7.982703
WTR 2.286509 6.032590 3.184448
WTR 0.612888 6.508817 6.558538
WTR 2.134076 4.968597 10.378456
POX 11.186018 9.555245 2.033669
WTR 1.965196 9.901871 5.056158
POX 1.602372 8.644193 9.487064
WTR 4.162971 1.092061 4.788558
POX 5.912897 11.134423 8.760030
WTR 6.510630 1.029845 1.952902
WTR 5.659505 5.288011 2.077916
WTR 4.333312 5.279109 6.543539
WTR 6.302665 3.349499 9.766145
WTR 3.814032 9.106177 1.173322
WTR 5.943105 8.238822 6.034923
WTR 5.356448 6.699330 9.876062
WTR 10.371721 2.032129 1.865381
WTR 7.816740 2.333894 5.726617
WTR 10.089995 2.529508 8.838085
WTR 9.536616 5.716381 0.157981
POX 9.059499 5.780677 4.185743
WTR 8.995720 6.969330 8.497697
WTR 7.346172 9.327993 3.122638
POX 9.678741 10.316689 6.652897
WTR 9.234939 10.736934 10.463875
27
Lattice="11.209513607476866 0 0 0 11.209513607476866 0 0 0 11.209513607476866" Properties=species:S:1:pos:R:3 Step=8
POX 2.936138 1.862087 1.197404
POX 1.063095 3.408729 5.195402
WTR 2.318182 0.985563 8.272536
WTR 1.574607 6.535917 3.321441
WTR 0.277951 6.631951 6.672386
WTR 2.334533 4.911419 10.366848
POX 11.104995 9.636483 1.950399
WTR 1.882990 9.746608 5.332618
POX 1.508394 8.590415 9.133211
WTR 4.149080 1.135484 4.683810
POX 6.078200 10.788034 8.932959
WTR 7.031012 1.653595 2.616404
WTR 5.293603 4.543783 2.498863
WTR 3.832698 5.310286 7.014036
WTR 6.585063 3.383069 9.452502
WTR 3.923171 9.651387 0.583362
WTR 5.717827 7.940759 6.120752
WTR 5.438166 6.726487 10.122599
WTR 10.146371 2.485642 1.239100
WTR 7.525223 2.375196 5.964089
WTR 10.459163 2.828592 8.626316
WTR 9.965731 5.798706 0.430966
POX 9.098227 5.768831 4.289107
WTR 8.490605 6.613293 8.216331
WTR 7.047417 8.928560 3.258742
POX 9.773348 10.163980 6.692579
WTR 9.146380 10.935743 10.549514
27
Lattice="11.209513607476866 0 0 0 11.209513607476866 0 0 0 11.209513607476866" Properties=species:S:1:pos:R:3 Step=9
POX 2.881672 1.771713 1.522247
POX 1.138383 3.213945 5.093212
WTR 2.118389 0.875208 8.761906
WTR 1.619236 6.910968 2.935610
WTR 0.254183 6.488164 6.567918
WTR 2.260594 4.981721 10.459028
POX 11.072515 9.757981 2.118764
WTR 2.133731 9.356297 5.421697
POX 1.582979 8.655654 9.195791
WTR 4.592603 1.246671 4.866339
POX 5.893292 10.398918 8.831919
WTR 7.789446 1.865275 2.892395
WTR 4.876215 4.526815 3.119624
WTR 3.445051 4.846313 7.383048
WTR 6.797649 3.280013 9.503664
WTR 4.148764 9.787638 0.720896
WTR 5.194672 7.846863 6.468612
WTR 5.643881 7.096870 10.802753
WTR 10.283365 2.969699 0.962690
WTR 7.390731 2.479920 6.400051
WTR 10.710237 3.318094 8.398934
WTR 10.290841 6.410161 0.712796
POX 8.700464 5.746139 4.147407
WTR 7.716131 6.307723 8.048347
WTR 7.058543 8.804154 2.537251
POX 9.642643 10.124191 6.570250
WTR 9.495258 11.131976 10.362006
27
Lattice="11.209513607476866 0 0 0 11.209513607476866 0 0 0 11.209513607476866" Properties=species:S:1:pos:R:3 Step=10
POX 2.785478 1.795712 1.629870
POX 1.071940 2.813672 4.860660
WTR 2.271548 1.407811 9.009261
WTR 2.300567 6.395728 2.782999
WTR 0.075544 6.623419 6.637197
WTR 2.260084 5.010220 10.979720
POX 11.006211 10.149949 2.426045
WTR 2.352503 9.664013 5.264093
POX 1.661368 8.565379 9.452705
WTR 4.776303 0.891849 5.249450
POX 5.807519 10.288699 8.703125
WTR 8.290359 1.616825 2.998225
WTR 4.776119 4.879935 3.677401
WTR 3.714976 4.336869 7.539401
WTR 6.634818 2.993314 10.417845
WTR 3.923426 9.648735 1.429734
WTR 4.823070 7.611607 6.048697
WTR 5.849486 6.700613 0.146246
WTR 10.667378 3.299696 0.860899
WTR 7.666652 2.524611 6.619660
WTR 10.560079 3.708904 8.391577
WTR 10.078102 7.084498 0.355824
POX 8.261699 5.685524 3.977431
WTR 7.689677 6.210284 7.944187
WTR 7.328212 9.037461 2.262792
POX 9.442715 10.126970 6.325393
WTR 9.406210 0.149241 9.750103
27
Lattice="11.209513607476866 0 0 0 11.209513607476866 0 0 0 11.209513607476866" Properties=species:S:1:pos:R:3 Step=11
POX 3.035270 1.816908 1.434457
POX 0.705513 2.514430 4.996455
WTR 2.393873 1.495741 9.076856
WTR 1.882824 6.531308 2.961249
WTR 11.187552 6.800249 6.211937
WTR 2.577119 5.145390 10.876212
POX 11.060360 10.519368 2.550137
WTR 1.956815 10.224909 5.318922
POX 1.809152 8.607493 9.715425
WTR 5.077802 0.612350 5.406590
POX 5.681934 10.213156 8.698221
WTR 8.316961 1.547888 3.161148
WTR 4.831635 4.105903 4.215731
WTR 4.254552 3.999425 7.631744
WTR 6.323117 2.522644 0.411301
WTR 3.685286 9.242780 2.021694
WTR 4.880088 7.369721 5.681941
WTR 6.002832 5.982112 0.343076
WTR 10.585620 3.601013 0.996029
WTR 7.941833 2.551450 6.744786
WTR 10.467343 3.979105 8.552015
WTR 9.507590 7.554152 11.040766
POX 8.170679 5.679431 3.799748
WTR 7.710165 6.401049 7.992389
WTR 7.589466 9.548006 2.375695
POX 9.209869 10.065289 6.024513
WTR 9.479052 0.309195 9.732520
27
Lattice="11.209513607476866 0 0 0 11.209513607476866 0 0 0 11.209513607476866" Properties=species:S:1:pos:R:3 Step=12
POX 3.147531 1.764624 1.332536
POX 0.301218 2.480734 5.296954
WTR 2.180789 1.118371 8.792953
WTR 1.105394 6.452765 3.146571
WTR 0.081138 6.917707 6.069851
WTR 2.835132 5.228585 10.419108
POX 0.065950 10.657451 2.135843
WTR 1.858203 10.268259 6.227669
POX 1.902326 8.768212 9.893847
WTR 5.459837 0.192084 5.259504
POX 5.607116 10.099891 8.868541
WTR 8.157932 2.086476 3.694999
WTR 4.312390 3.158053 4.310874
WTR 4.877495 3.969293 7.906314
WTR 6.799815 1.914185 0.747946
WTR 3.835920 8.957590 2.307669
WTR 4.873795 7.549932 5.499220
WTR 6.173372 5.698855 0.515483
WTR 10.378557 3.894563 1.291837
WTR 8.000082 2.591425 6.964744
WTR 10.772254 4.320537 8.884523
WTR 9.073593 7.986554 10.686249
POX 8.332824 5.786534 3.622769
WTR 7.537046 6.728103 7.950724
WTR 7.128590 9.576096 2.334149
POX 8.855859 9.933528 5.961180
WTR 9.653884 0.376445 9.934906
27
Lattice="11.209513607476866 0 0 0 11.209513607476866 0 0 0 11.209513607476866" Properties=species:S:1:pos:R:3 Step=13
POX 3.207763 1.751371 1.034463
POX 0.057245 2.601505 5.663663
WTR 2.006595 1.479175 8.750151
WTR 0.823182 6.313281 2.503718
WTR 0.090709 6.958069 6.894662
WTR 2.943534 5.199901 10.233047
POX 0.026197 10.576170 1.816508
WTR 1.780003 9.753088 6.566668
POX 1.820778 8.844032 10.121949
WTR 5.302566 10.733125 5.080679
POX 5.659486 10.043334 9.200839
WTR 8.005408 2.296400 4.172682
WTR 3.666375 3.234588 4.718403
WTR 5.321228 3.946532 8.273152
WTR 7.456542 1.376509 0.132997
WTR 3.548057 8.656699 2.270102
WTR 4.688167 7.401223 5.425183
WTR 6.240760 5.492251 0.614896
WTR 10.476803 3.720449 1.246703
WTR 8.162174 2.641986 7.889732
WTR 11.064027 4.758075 9.210157
WTR 9.014086 8.416224 10.639280
POX 8.424974 6.139351 3.629386
WTR 7.295755 6.784158 7.629318
WTR 7.052227 9.500018 2.093980
POX 8.653602 9.751198 5.946114
WTR 10.003399 0.496767 9.745790
27
Lattice="11.209513607476866 0 0 0 11.209513607476866 0 0 0 11.209513607476866" Properties=species:S:1:pos:R:3 Step=14
POX 3.498530 1.797777 0.805649
POX 11.135180 2.733662 5.941690
WTR 2.382338 2.210140 8.601609
WTR 0.844174 6.387712 2.122529
WTR 0.005756 6.881035 7.058813
WTR 3.125706 5.418029 10.524902
POX 10.855458 10.557439 2.105808
WTR 1.778317 9.641150 6.020339
POX 1.774856 8.706843 10.120204
WTR 4.524717 10.848924 4.873600
POX 5.706119 10.012815 9.486087
WTR 7.201878 2.288347 4.134347
WTR 3.322436 3.569447 5.070546
WTR 5.201168 3.734327 8.364158
WTR 7.373005 1.405197 0.254080
WTR 3.331392 8.553822 2.206360
WTR 4.231406 6.655433 5.419126
WTR 6.299319 5.236831 0.720487
WTR 10.472622 2.825689 1.280475
WTR 8.481389 2.693904 8.550357
WTR 10.792659 4.867949 9.754495
WTR 9.130497 8.290372 10.460027
POX 8.479247 6.495549 3.749120
WTR 7.271264 6.515084 7.561429
WTR 7.092414 9.516324 1.977276
POX 8.752451 9.748215 5.948894
WTR 10.924988 0.152635 8.929541
27
Lattice="11.209513607476866 0 0 0 11.209513607476866 0 0 0 11.209513607476866" Properties=species:S:1:pos:R:3 Step=15
POX 3.768127 1.755856 0.852895
POX 10.767569 2.871308 5.912668
WTR 2.461876 2.438857 8.268111
WTR 0.498628 6.062809 2.145960
WTR 11.125068 6.568701 6.611127
WTR 3.392879 5.505123 11.045438
POX 10.490675 10.355846 2.659623
WTR 1.365291 9.741718 5.379431
POX 1.808712 8.541023 9.953468
WTR 4.367010 0.216577 4.678179
POX 5.710907 9.923602 9.569288
WTR 6.532656 2.471174 4.185327
WTR 3.179157 3.245916 4.703169
WTR 5.689405 3.559017 8.081674
WTR 7.299033 1.650429 0.883741
WTR 3.721634 8.803587 2.340800
WTR 3.960998 6.649258 5.516772
WTR 6.631263 5.065712 1.025036
WTR 10.668790 2.610844 1.752130
WTR 8.527905 2.627760 8.696635
WTR 10.491354 4.968331 10.531272
WTR 9.151327 8.004848 10.221318
POX 8.546669 6.519781 3.792475
WTR 7.328091 6.344887 7.621172
WTR 6.828128 9.547374 2.183760
POX 8.784956 10.125426 6.104764
WTR 0.137186 11.099112 8.156421
27
Lattice="11.209513607476866 0 0 0 11.209513607476866 0 0 0 11.209513607476866" Properties=species:S:1:pos:R:3 Step=16
POX 3.774557 1.615861 0.923109
POX 10.300483 3.001608 5.603695
WTR 2.335489 2.689317 8.306376
WTR 0.868569 6.147085 2.668889
WTR 0.138002 6.373653 6.447386
WTR 3.732715 5.297109 0.227259
POX 10.235049 9.990680 2.668024
WTR 1.587789 9.469455 5.324713
POX 1.850856 8.339922 9.846444
WTR 4.484103 0.046643 4.946968
POX 5.751509 9.869208 9.527294
WTR 6.716338 3.226978 4.457988
WTR 2.574779 3.202172 3.977483
WTR 5.669133 3.403152 7.701454
WTR 7.826934 1.570900 1.223021
WTR 3.412592 8.769088 2.188105
WTR 3.935632 7.148186 5.822986
WTR 6.936001 5.103368 1.062886
WTR 11.163775 2.728653 2.250503
WTR 8.961160 1.904052 9.208983
WTR 10.388002 4.911799 10.620854
WTR 9.042339 8.333081 10.228612
POX 8.489685 6.448235 3.952754
WTR 7.402177 6.666023 7.531231
WTR 6.817878 9.531927 2.414130
POX 8.306437 10.500429 6.461032
WTR 0.403592 0.112589 8.198195
27
Lattice="11.209513607476866 0 0 0 11.209513607476866 0 0 0 11.209513607476866" Properties=species:S:1:pos:R:3 Step=17
POX 3.749782 1.304862 0.870363
POX 9.902777 2.945799 5.521368
WTR 2.349488 3.546155 8.543089
WTR 1.288260 6.546679 3.157860
WTR 0.503740 6.423516 6.914732
WTR 3.677799 5.275819 0.250598
POX 10.319438 9.793659 2.368740
WTR 1.658391 9.517386 5.689969
POX 1.837692 8.047877 9.750046
WTR 4.774002 11.096540 5.463637
POX 5.573541 9.870078 9.626767
WTR 6.425314 3.581872 4.421151
WTR 2.714430 3.603668 4.188775
WTR 5.669408 3.122269 7.771668
WTR 8.058080 1.374994 1.666198
WTR 2.986656 8.926714 1.788931
WTR 4.424264 7.125073 6.290691
WTR 7.225230 5.174694 0.506241
WTR 0.146954 2.173812 1.634764
WTR 9.069153 1.385270 9.689850
WTR 10.519820 4.969028 10.268801
WTR 9.257160 8.829008 10.443042
POX 8.430977 6.587803 4.168375
WTR 7.400119 6.941628 7.702032
WTR 6.245717 9.362084 2.524444
POX 7.867347 10.768118 6.590527
WTR 0.687666 11.156924 8.436536
27
Lattice="11.209513607476866 0 0 0 11.209513607476866 0 0 0 11.209513607476866" Properties=species:S:1:pos:R:3 Step=18
POX 3.785176 1.279071 0.881572
POX 9.803654 2.889604 5.525749
WTR 2.207360 4.051377 8.663996
WTR 1.068502 6.511509 3.583499
WTR 0.185009 6.050263 6.729345
WTR 3.718450 5.157678 0.534049
POX 10.625135 9.693913 2.340212
WTR 1.197638 9.793664 5.571557
POX 1.827076 7.713581 9.701850
WTR 4.017924 0.243444 5.595256
POX 5.309494 9.732058 9.833379
WTR 5.776898 3.543830 3.893619
WTR 2.746627 3.688419 4.896396
WTR 6.053380 2.745449 8.292463
WTR 7.500139 1.382349 2.519386
WTR 2.697772 9.287451 1.702805
WTR 4.728128 6.866570 6.538150
WTR 7.482741 5.286148 0.021236
WTR 0.343555 1.905554 0.884632
WTR 8.851929 1.337071 9.901328
WTR 10.564894 5.020347 10.064235
WTR 9.299985 9.009360 10.041529
POX 8.437295 6.893176 4.311438
WTR 7.806343 6.886201 8.361736
WTR 5.969285 9.055030 2.656420
POX 7.980954 10.826157 6.477451
WTR 1.122353 0.453274 8.674200
27
Lattice="11.209513607476866 0 0 0 11.209513607476866 0 0 0 11.209513607476866" Properties=species:S:1:pos:R:3 Step=19
POX 3.996238 1.712609 1.034427
POX 9.826927 2.940090 5.390004
WTR 2.794693 3.990898 8.726051
WTR 0.978453 6.216366 3.208354
WTR 10.888267 6.154005 6.669379
WTR 3.882458 5.271131 1.199460
POX 10.525769 9.822058 2.281469
WTR 0.369211 9.850121 5.800215
POX 1.737409 7.511735 9.601327
WTR 3.641187 0.679601 5.692003
POX 5.343281 9.441442 9.807049
WTR 5.676517 4.265868 3.602563
WTR 1.976650 3.535774 5.559927
WTR 6.041572 2.571673 8.615939
WTR 7.473004 0.781429 3.024288
WTR 3.024153 8.856255 1.857258
WTR 4.720461 6.724779 6.567169
WTR 7.200946 5.257541 0.464071
WTR 0.097434 2.110923 0.733574
WTR 8.530023 1.407050 10.245161
WTR 10.453921 4.809582 10.313643
WTR 9.636225 9.491575 9.833693
POX 8.325802 7.013484 4.487020
WTR 7.940219 6.428575 8.165361
WTR 5.963239 8.827370 2.754171
POX 8.024039 10.511270 6.360950
WTR 1.685795 0.889651 8.909679
