27
Lattice="11.209513607476868 0 0 0 11.209513607476868 0 0 0 11.209513607476868" Properties=species:S:1:pos:R:3 Step=0
WTR 1.856053 1.772996 1.871550
WTR 1.853225 1.854879 5.572338
WTR 1.812056 1.888817 9.299700
WTR 1.826485 5.632827 1.869857
WTR 1.797124 5.608939 5.545722
WTR 1.922633 5.673279 9.341146
WTR 1.928734 9.263619 1.868894
WTR 1.789205 9.324479 5.526150
POX 1.798082 9.361894 9.295663
POX 5.533704 1.817463 1.842537
POX 5.599696 1.809311 5.638562
POX 5.599691 1.866576 9.321601
WTR 5.659526 5.619918 1.800169
POX 5.644754 5.689205 5.601902
WTR 5.676829 5.570256 9.356372
WTR 5.591699 9.331550 1.915541
WTR 5.613395 9.423922 5.615310
POX 5.528361 9.315017 9.406678
WTR 9.323541 1.779413 1.818443
WTR 9.260776 1.965339 5.688893
WTR 9.398203 1.886849 9.395574
WTR 9.276256 5.568695 1.867558
POX 9.314339 5.521840 5.693161
WTR 9.326368 5.606898 9.299162
WTR 9.294689 9.320480 1.928907
WTR 9.381947 9.321713 5.514982
WTR 9.396825 9.302804 9.355518
27
Lattice="11.209513607476868 0 0 0 11.209513607476868 0 0 0 11.209513607476868" Properties=species:S:1:pos:R:3 Step=1
WTR 1.848851 1.707045 1.810575
WTR 1.822479 1.868907 5.565668
WTR 1.797229 1.874533 9.257004
WTR 1.845866 5.689752 1.832968
WTR 1.768751 5.625755 5.542762
WTR 1.932126 5.691373 9.350279
WTR 1.885942 9.270440 1.870613
WTR 1.810927 9.291625 5.492445
POX 1.787475 9.387753 9.351089
POX 5.557849 1.832864 1.867510
POX 5.609068 1.775359 5.711054
POX 5.581485 1.845836 9.338482
WTR 5.659022 5.625177 1.746407
POX 5.660715 5.669061 5.572806
WTR 5.670313 5.521760 9.386922
WTR 5.597417 9.348291 1.874604
WTR 5.632148 9.401982 5.633727
POX 5.551483 9.295552 9.405781
WTR 9.325151 1.772997 1.788829
WTR 9.271477 2.005625 5.648054
WTR 9.409034 1.882329 9.448652
WTR 9.242936 5.595125 1.810560
POX 9.321396 5.542681 5.674022
WTR 9.285739 5.620616 9.216340
WTR 9.278460 9.324736 1.916055
WTR 9.343934 9.353535 5.527559
WTR 9.393845 9.349886 9.342825
27
Lattice="11.209513607476868 0 0 0 11.209513607476868 0 0 0 11.209513607476868" Properties=species:S:1:pos:R:3 Step=2
WTR 1.833711 1.643582 1.748254
WTR 1.790412 1.881050 5.559937
WTR 1.774026 1.866363 9.212041
WTR 1.867550 5.750717 1.799466
WTR 1.742451 5.642852 5.535962
WTR 1.939359 5.698852 9.358342
WTR 1.843494 9.273304 1.882402
WTR 1.832377 9.260532 5.457807
POX 1.768171 9.413544 9.404572
POX 5.582189 1.849533 1.895768
POX 5.617871 1.738939 5.773921
POX 5.564837 1.835631 9.361306
WTR 5.659208 5.636190 1.686581
POX 5.659980 5.654667 5.543163
WTR 5.664718 5.476161 9.425031
WTR 5.604627 9.356812 1.840265
WTR 5.648661 9.378697 5.643233
POX 5.584796 9.263959 9.405339
WTR 9.333622 1.763965 1.752495
WTR 9.294229 2.030555 5.602215
WTR 9.423590 1.877351 9.509811
WTR 9.207867 5.621977 1.745656
POX 9.343529 5.565688 5.653525
WTR 9.243214 5.633841 9.152105
WTR 9.263583 9.330386 1.905021
WTR 9.302099 9.387751 5.540795
WTR 9.385519 9.398064 9.328706
27
Lattice="11.209513607476868 0 0 0 11.209513607476868 0 0 0 11.209513607476868" Properties=species:S:1:pos:R:3 Step=3
WTR 1.812317 1.584747 1.686791
WTR 1.759023 1.891086 5.555217
WTR 1.743434 1.865281 9.165925
WTR 1.890678 5.813757 1.770705
WTR 1.721195 5.659419 5.525668
WTR 1.944251 5.696130 9.365023
WTR 1.802900 9.272056 1.904615
WTR 1.852741 9.232420 5.424869
POX 1.742911 9.438013 9.453851
POX 5.605681 1.866912 1.927024
POX 5.625885 1.701866 5.822079
POX 5.549955 1.835119 9.391730
WTR 5.660006 5.652630 1.623290
POX 5.643774 5.645570 5.514134
WTR 5.660200 5.436635 9.468000
WTR 5.612862 9.357002 1.814706
WTR 5.662417 9.354886 5.643168
POX 5.625143 9.222059 9.404921
WTR 9.348604 1.752234 1.710766
WTR 9.327233 2.039511 5.553065
WTR 9.440691 1.872036 9.576436
WTR 9.172382 5.648493 1.676078
POX 9.378207 5.590157 5.631604
WTR 9.200103 5.646221 9.110771
WTR 9.250557 9.337330 1.896218
WTR 9.258453 9.422894 5.554006
WTR 9.372481 9.446019 9.313418
27
Lattice="11.209513607476868 0 0 0 11.209513607476868 0 0 0 11.209513607476868" Properties=species:S:1:pos:R:3 Step=4
WTR 1.786575 1.531975 1.627925
WTR 1.729916 1.898984 5.551541
WTR 1.706942 1.871469 9.119504
WTR 1.914462 5.877153 1.747497
WTR 1.707736 5.674830 5.512358
WTR 1.946871 5.684487 9.370233
WTR 1.765196 9.266856 1.936563
WTR 1.871484 9.208128 5.395572
POX 1.714737 9.460173 9.497476
POX 5.627554 1.884435 1.960645
POX 5.633154 1.665763 5.853544
POX 5.536756 1.842226 9.429651
WTR 5.661272 5.673791 1.559067
POX 5.615350 5.640794 5.486668
WTR 5.656838 5.405522 9.513217
WTR 5.621668 9.349628 1.799023
WTR 5.673175 9.331374 5.633778
POX 5.669026 9.172773 9.404165
WTR 9.369207 1.737786 1.665253
WTR 9.367937 2.033707 5.502224
WTR 9.459205 1.866487 9.645916
WTR 9.137551 5.674170 1.604747
POX 9.421088 5.615205 5.608483
WTR 9.157488 5.657496 9.093512
WTR 9.239677 9.345426 1.889856
WTR 9.214797 9.457714 5.566576
WTR 9.355878 9.492888 9.297171
27
Lattice="11.209513607476868 0 0 0 11.209513607476868 0 0 0 11.209513607476868" Properties=species:S:1:pos:R:3 Step=5
WTR 1.758091 1.485688 1.572498
WTR 1.704042 1.904894 5.548882
WTR 1.665974 1.884452 9.073080
WTR 1.938418 5.939921 1.730021
WTR 1.704350 5.688769 5.496459
WTR 1.947394 5.665547 9.374105
WTR 1.730707 9.258108 1.976852
WTR 1.888471 9.187977 5.371021
POX 1.686144 9.479526 9.535048
POX 5.647509 1.901743 1.996032
POX 5.639884 1.631660 5.869613
POX 5.524925 1.854375 9.473315
WTR 5.662822 5.698917 1.495885
POX 5.578510 5.639149 5.461264
WTR 5.654610 5.383984 9.558584
WTR 5.630723 9.335947 1.793173
WTR 5.680983 9.308749 5.615899
POX 5.713550 9.119027 9.402837
WTR 9.394316 1.720521 1.617591
WTR 9.413903 2.015481 5.450774
WTR 9.478323 1.860782 9.716109
WTR 9.103891 5.698919 1.533517
POX 9.467608 5.640072 5.584589
WTR 9.115989 5.667546 9.098471
WTR 9.230993 9.354573 1.885948
WTR 9.172301 9.491485 5.578082
WTR 9.337110 9.538609 9.280006
27
Lattice="11.209513607476868 0 0 0 11.209513607476868 0 0 0 11.209513607476868" Properties=species:S:1:pos:R:3 Step=6
WTR 1.727911 1.445468 1.520498
WTR 1.681788 1.909070 5.547170
WTR 1.621504 1.903429 9.026413
WTR 1.962428 6.001846 1.718025
WTR 1.712732 5.701191 5.478204
WTR 1.946014 5.640770 9.376927
WTR 1.699130 9.246339 2.023843
WTR 1.903916 9.171896 5.351716
POX 1.658757 9.496024 9.567005
POX 5.665683 1.918748 2.032787
POX 5.646333 1.599965 5.873730
POX 5.514027 1.869166 9.520107
WTR 5.664452 5.727479 1.435197
POX 5.536430 5.639508 5.437983
WTR 5.653424 5.372079 9.602477
WTR 5.639885 9.317250 1.796349
WTR 5.686061 9.287304 5.590474
POX 5.756797 9.063025 9.400838
WTR 9.422884 1.700127 1.569564
WTR 9.463346 1.987335 5.399110
WTR 9.497659 1.854992 9.785189
WTR 9.071364 5.723041 1.463041
POX 9.514114 5.664289 5.560397
WTR 9.075832 5.676371 9.122140
WTR 9.224390 9.364761 1.884410
WTR 9.131457 9.524008 5.588294
WTR 9.317591 9.583907 9.261754
27
Lattice="11.209513607476868 0 0 0 11.209513607476868 0 0 0 11.209513607476868" Properties=species:S:1:pos:R:3 Step=7
WTR 1.696543 1.410453 1.471378
WTR 1.663242 1.911772 5.546316
WTR 1.573962 1.927566 8.978902
WTR 1.986665 6.063219 1.711091
WTR 1.733858 5.712217 5.457601
WTR 1.942874 5.611201 9.379061
WTR 1.669767 9.232145 2.075945
WTR 1.918248 9.159648 5.337906
POX 1.633428 9.509894 9.594218
POX 5.682488 1.935607 2.070650
POX 5.652750 1.570654 5.870107
POX 5.503596 1.884700 9.567408
WTR 5.665948 5.759312 1.378397
POX 5.491277 5.640934 5.416599
WTR 5.653141 5.368961 9.643337
WTR 5.649170 9.294595 1.807434
WTR 5.688665 9.267108 5.558220
POX 5.797713 9.006116 9.398163
WTR 9.454058 1.675991 1.523682
WTR 9.515214 1.951300 5.347058
WTR 9.517195 1.849246 9.850910
WTR 9.039527 5.747109 1.393090
POX 9.558200 5.687676 5.536282
WTR 9.037041 5.684025 9.160819
WTR 9.219692 9.376082 1.885173
WTR 9.092272 9.555453 5.597099
WTR 9.298625 9.630095 9.242067
27
Lattice="11.209513607476868 0 0 0 11.209513607476868 0 0 0 11.209513607476868" Properties=species:S:1:pos:R:3 Step=8
WTR 1.664130 1.379656 1.424385
WTR 1.648446 1.913221 5.546227
WTR 1.523317 1.956127 8.929777
WTR 2.011504 6.124481 1.708818
WTR 1.767684 5.722041 5.434459
WTR 1.938035 5.577458 9.380902
WTR 1.641719 9.216215 2.131700
WTR 1.932007 9.151004 5.329911
POX 1.610516 9.521470 9.617663
POX 5.698468 1.952646 2.109330
POX 5.659359 1.543456 5.862834
POX 5.493181 1.899620 9.613096
WTR 5.667068 5.794629 1.327385
POX 5.444387 5.642679 5.396768
WTR 5.653580 5.372962 9.679172
WTR 5.658718 9.268746 1.825299
WTR 5.689004 9.248120 5.519476
POX 5.835823 8.949009 9.394855
WTR 9.487166 1.647133 1.483977
WTR 9.569006 1.908734 5.294079
WTR 9.537159 1.843836 9.909644
WTR 9.007705 5.771860 1.323021
POX 9.598579 5.710257 5.512452
WTR 8.999616 5.690548 9.211414
WTR 9.216749 9.388705 1.888255
WTR 9.054515 9.586163 5.604416
WTR 9.281331 9.678865 9.220460
27
Lattice="11.209513607476868 0 0 0 11.209513607476868 0 0 0 11.209513607476868" Properties=species:S:1:pos:R:3 Step=9
WTR 1.630643 1.352166 1.378805
WTR 1.637570 1.913576 5.546802
WTR 1.469254 1.988489 8.878259
WTR 2.037434 6.185905 1.710892
WTR 1.812710 5.730888 5.408446
WTR 1.931470 5.539847 9.382865
WTR 1.613997 9.199426 2.189732
WTR 1.945783 9.145850 5.328304
POX 1.590135 9.531079 9.638229
POX 5.714192 1.970303 2.148335
POX 5.666359 1.517996 5.855575
POX 5.482357 1.913000 9.655658
WTR 5.667519 5.833940 1.284921
POX 5.396663 5.644139 5.378140
WTR 5.654502 5.381552 9.707256
WTR 5.668746 9.240263 1.848924
WTR 5.687197 9.230281 5.474221
POX 5.870976 8.892131 9.390963
WTR 9.521651 1.612178 1.456392
WTR 9.624505 1.860415 5.239468
WTR 9.557876 1.839323 9.955872
WTR 8.975115 5.798135 1.252311
POX 9.634784 5.732164 5.488965
WTR 8.963678 5.695902 9.271478
WTR 9.215467 9.402841 1.893799
WTR 9.017913 9.616495 5.610126
WTR 9.266575 9.732113 9.196357
27
Lattice="11.209513607476868 0 0 0 11.209513607476868 0 0 0 11.209513607476868" Properties=species:S:1:pos:R:3 Step=10
WTR 1.596139 1.327289 1.334207
WTR 1.631029 1.912948 5.547898
WTR 1.411472 2.024010 8.823754
WTR 2.064957 6.247212 1.717066
WTR 1.865410 5.739003 5.379202
WTR 1.923103 5.498591 9.385377
WTR 1.585611 9.183002 2.248555
WTR 1.960163 9.144218 5.333971
POX 1.572361 9.538967 9.656597
POX 5.730170 1.989049 2.186800
POX 5.673914 1.493911 5.851571
POX 5.470754 1.924167 9.694042
WTR 5.666922 5.877766 1.254456
POX 5.349113 5.644793 5.360475
WTR 5.655573 5.391309 9.724369
WTR 5.679499 9.209689 1.877322
WTR 5.683288 9.213607 5.422261
POX 5.903130 8.836055 9.386519
WTR 9.556953 1.569560 1.447498
WTR 9.681449 1.806837 5.182616
WTR 9.579524 1.836526 9.983364
WTR 8.941005 5.826810 1.181319
POX 9.666819 5.753508 5.465828
WTR 8.929651 5.699884 9.338526
WTR 9.215815 9.418650 1.902072
WTR 8.982344 9.646652 5.614026
WTR 9.254891 9.791669 9.169175
27
Lattice="11.209513607476868 0 0 0 11.209513607476868 0 0 0 11.209513607476868" Properties=species:S:1:pos:R:3 Step=11
WTR 1.561013 1.304613 1.290635
WTR 1.629481 1.911424 5.549295
WTR 1.350031 2.061842 8.766059
WTR 2.094485 6.307250 1.727054
WTR 1.919698 5.746684 5.346475
WTR 1.912856 5.454099 9.388875
WTR 1.555640 9.168656 2.306425
WTR 1.975672 9.146237 5.347956
POX 1.557335 9.545266 9.673191
POX 5.746786 2.009289 2.223425
POX 5.682133 1.470943 5.853627
POX 5.458086 1.932566 9.727474
WTR 5.664788 5.926109 1.238984
POX 5.303353 5.644162 5.343718
WTR 5.656344 5.398146 9.727971
WTR 5.691199 9.177794 1.909359
WTR 5.677286 9.198246 5.363541
POX 5.932252 8.781863 9.381536
WTR 9.592375 1.518152 1.460774
WTR 9.739248 1.748595 5.123292
WTR 9.601881 1.836214 9.988827
WTR 8.904797 5.858742 1.112390
POX 9.694839 5.774287 5.443107
WTR 8.898407 5.702039 9.408773
WTR 9.217797 9.436108 1.913435
WTR 8.947976 9.676536 5.615815
WTR 9.246355 9.858914 9.138449
27
Lattice="11.209513607476868 0 0 0 11.209513607476868 0 0 0 11.209513607476868" Properties=species:S:1:pos:R:3 Step=12
WTR 1.525998 1.283887 1.248453
WTR 1.633721 1.909088 5.550640
WTR 1.285302 2.101024 8.705163
WTR 2.126411 6.364243 1.740469
WTR 1.967128 5.754370 5.310054
WTR 1.900666 5.406929 9.393798
WTR 1.523153 9.158485 2.361716
WTR 1.992794 9.152056 5.371214
POX 1.545195 9.550035 9.688276
POX 5.764336 2.031372 2.256839
POX 5.691094 1.448855 5.863924
POX 5.444115 1.937719 9.755571
WTR 5.660523 5.978104 1.239264
POX 5.261656 5.641813 5.327948
WTR 5.656255 5.398027 9.717850
WTR 5.704063 9.145590 1.943736
WTR 5.669189 9.184407 5.298139
POX 5.958450 8.730985 9.375994
WTR 9.627095 1.457801 1.493454
WTR 9.797175 1.686382 5.061537
WTR 9.624303 1.838630 9.975148
WTR 8.865995 5.894954 1.050824
POX 9.719071 5.794444 5.420872
WTR 8.871138 5.701547 9.475923
WTR 9.221397 9.454956 1.928346
WTR 8.915123 9.705816 5.615130
WTR 9.240452 9.934748 9.103780
27
Lattice="11.209513607476868 0 0 0 11.209513607476868 0 0 0 11.209513607476868" Properties=species:S:1:pos:R:3 Step=13
WTR 1.492004 1.264867 1.208000
WTR 1.644601 1.906009 5.551405
WTR 1.217600 2.140760 8.640792
WTR 2.161295 6.416431 1.756911
WTR 1.998174 5.762726 5.269484
WTR 1.886425 5.357505 9.400607
WTR 1.487044 9.154678 2.413508
WTR 2.012036 9.161801 5.404464
POX 1.535966 9.553301 9.702079
POX 5.783146 2.055682 2.286131
POX 5.700910 1.427310 5.883848
POX 5.428553 1.939196 9.778491
WTR 5.653426 6.032057 1.253191
POX 5.226586 5.637345 5.313289
WTR 5.654700 5.387847 9.696547
WTR 5.718391 9.114233 1.979100
WTR 5.658947 9.172257 5.226020
POX 5.982150 8.684740 9.369817
WTR 9.660229 1.389200 1.538154
WTR 9.854853 1.620685 4.997335
WTR 9.645926 1.843437 9.949931
WTR 8.823936 5.937029 1.005410
POX 9.739795 5.814003 5.399070
WTR 8.849119 5.697054 9.530526
WTR 9.226560 9.474678 1.947470
WTR 8.883980 9.734112 5.611564
WTR 9.236113 10.019907 9.064620
27
Lattice="11.209513607476868 0 0 0 11.209513607476868 0 0 0 11.209513607476868" Properties=species:S:1:pos:R:3 Step=14
WTR 1.460350 1.247448 1.169787
WTR 1.662904 1.902248 5.550834
WTR 1.147606 2.180210 8.572745
WTR 2.199574 6.462146 1.775947
WTR 2.004354 5.772565 5.224256
WTR 1.870094 5.306434 9.409757
WTR 1.446375 9.159185 2.461350
WTR 2.033760 9.175489 5.447811
POX 1.529624 9.555034 9.714703
POX 5.803456 2.082433 2.310875
POX 5.711687 1.406038 5.913752
POX 5.411140 1.936516 9.796695
WTR 5.642761 6.085182 1.276786
POX 5.200686 5.630426 5.300021
WTR 5.651119 5.366185 9.668256
WTR 5.734494 9.085343 2.013645
WTR 5.646508 9.162030 5.147721
POX 6.003857 8.644440 9.362947
WTR 9.690511 1.314062 1.586595
WTR 9.912014 1.552266 4.931126
WTR 9.665589 1.850166 9.921664
WTR 8.778089 5.986877 0.987028
POX 9.757015 5.832943 5.377693
WTR 8.833759 5.686681 9.561226
WTR 9.233108 9.494200 1.971597
WTR 8.854790 9.760782 5.604677
WTR 9.231963 10.114339 9.020495
27
Lattice="11.209513607476868 0 0 0 11.209513607476868 0 0 0 11.209513607476868" Properties=species:S:1:pos:R:3 Step=15
WTR 1.433082 1.231911 1.134938
WTR 1.688882 1.897898 5.547953
WTR 1.077327 2.217974 8.501916
WTR 2.240815 6.499764 1.796919
WTR 1.982179 5.784538 5.174572
WTR 1.851985 5.255242 9.421519
WTR 1.401241 9.173051 2.504569
WTR 2.057772 9.192733 5.499853
POX 1.526128 9.555154 9.725981
POX 5.825106 2.111207 2.330917
POX 5.723361 1.385162 5.952336
POX 5.391912 1.929218 9.810708
WTR 5.628012 6.133202 1.305297
POX 5.185727 5.620981 5.288740
WTR 5.645218 5.334250 9.637581
WTR 5.752459 9.061438 2.044324
WTR 5.632006 9.154155 5.065992
POX 6.023772 8.611622 9.355485
WTR 9.716011 1.236113 1.631196
WTR 9.967794 1.483259 4.864932
WTR 9.681696 1.858613 9.897751
WTR 8.729052 6.045188 1.001658
POX 9.770126 5.850921 5.357112
WTR 8.826376 5.668988 9.561480
WTR 9.240536 9.511361 2.001231
WTR 8.828209 9.784566 5.594162
WTR 9.226646 10.215569 8.971693
27
Lattice="11.209513607476868 0 0 0 11.209513607476868 0 0 0 11.209513607476868" Properties=species:S:1:pos:R:3 Step=16
WTR 1.412239 1.218688 1.104631
WTR 1.722120 1.893045 5.541721
WTR 1.009179 2.252599 8.429727
WTR 2.283834 6.528754 1.819144
WTR 1.936681 5.798980 5.121195
WTR 1.832673 5.205799 9.435975
WTR 1.352713 9.195845 2.542703
WTR 2.083432 9.212752 5.557921
POX 1.525273 9.553620 9.735664
POX 5.847685 2.141153 2.346639
POX 5.735787 1.364980 5.996831
POX 5.371086 1.917008 9.821386
WTR 5.608969 6.171600 1.334372
POX 5.181396 5.609268 5.280082
WTR 5.637121 5.295946 9.608184
WTR 5.772297 9.045289 2.067011
WTR 5.615655 9.149053 4.985579
POX 6.041976 8.587216 9.347659
WTR 9.734920 1.160382 1.665974
WTR 10.021410 1.416492 4.801761
WTR 9.692780 1.869170 9.883629
WTR 8.678667 6.110507 1.043447
POX 9.778133 5.867503 5.337861
WTR 8.827202 5.644322 9.536491
WTR 9.247968 9.523028 2.036631
WTR 8.804887 9.804007 5.579924
WTR 9.219062 10.319368 8.918947
27
Lattice="11.209513607476868 0 0 0 11.209513607476868 0 0 0 11.209513607476868" Properties=species:S:1:pos:R:3 Step=17
WTR 1.398855 1.207974 1.079246
WTR 1.762307 1.887658 5.531118
WTR 0.943879 2.283546 8.356390
WTR 2.327731 6.550407 1.842437
WTR 1.879156 5.816156 5.064278
WTR 1.812480 5.158913 9.453313
WTR 1.301701 9.226250 2.576306
WTR 2.110306 9.234889 5.619781
POX 1.526661 9.550438 9.743710
POX 5.871105 2.171788 2.359127
POX 5.749047 1.345435 6.044464
POX 5.348544 1.899595 9.830130
WTR 5.585401 6.197443 1.361209
POX 5.185463 5.595614 5.274371
WTR 5.627195 5.256112 9.581766
WTR 5.794453 9.038883 2.077160
WTR 5.597274 9.146905 4.911243
POX 6.058851 8.570849 9.339608
WTR 9.746509 1.091024 1.687152
WTR 10.073472 1.353607 4.743819
WTR 9.698239 1.883089 9.882491
WTR 8.628787 6.180791 1.100047
POX 9.779936 5.882602 5.320151
WTR 8.835140 5.614356 9.498260
WTR 9.254350 9.525678 2.078550
WTR 8.784820 9.818140 5.561793
WTR 9.208360 10.422564 8.862111
27
Lattice="11.209513607476868 0 0 0 11.209513607476868 0 0 0 11.209513607476868" Properties=species:S:1:pos:R:3 Step=18
WTR 1.393105 1.199819 1.058694
WTR 1.809467 1.881609 5.515228
WTR 0.880546 2.310882 8.281235
WTR 2.371866 6.566920 1.866943
WTR 1.822477 5.836410 5.003396
WTR 1.791470 5.114510 9.473872
WTR 1.248908 9.262795 2.606461
WTR 2.138194 9.258722 5.683929
POX 1.529862 9.545599 9.750215
POX 5.895571 2.202995 2.369665
POX 5.763447 1.326217 6.092893
POX 5.323851 1.876642 9.838627
WTR 5.557101 6.209384 1.384321
POX 5.195282 5.580307 5.271740
WTR 5.615880 5.219215 9.558638
WTR 5.819811 9.043235 2.069919
WTR 5.576216 9.147705 4.847514
POX 6.074937 8.561481 9.331368
WTR 9.750898 1.031133 1.692215
WTR 10.125518 1.295244 4.692587
WTR 9.698359 1.902268 9.896081
WTR 8.580838 6.254547 1.161253
POX 9.774239 5.896356 5.304003
WTR 8.848597 5.580816 9.456935
WTR 9.258521 9.515841 2.128228
WTR 8.767591 9.826336 5.539441
WTR 9.193887 10.523146 8.800217
27
Lattice="11.209513607476868 0 0 0 11.209513607476868 0 0 0 11.209513607476868" Properties=species:S:1:pos:R:3 Step=19
WTR 1.394636 1.194331 1.043011
WTR 1.863253 1.874831 5.493613
WTR 0.818067 2.334554 8.204259
WTR 2.415102 6.580409 1.892492
WTR 1.778201 5.859992 4.938659
WTR 1.769807 5.072575 9.497791
WTR 1.195689 9.303779 2.633998
WTR 2.166658 9.283688 5.748562
POX 1.534439 9.539140 9.755245
POX 5.921124 2.234454 2.379265
POX 5.779262 1.307183 6.139562
POX 5.296696 1.848187 9.848538
WTR 5.524545 6.207340 1.402727
POX 5.208584 5.563781 5.272290
WTR 5.603705 5.188992 9.538777
WTR 5.849106 9.058219 2.041523
WTR 5.551780 9.151241 4.798466
POX 6.090589 8.558066 9.322997
WTR 9.748545 0.983042 1.679515
WTR 10.178697 1.242190 4.649603
WTR 9.694137 1.928396 9.924829
WTR 8.536226 6.330164 1.220600
POX 9.759860 5.908786 5.289616
WTR 8.865945 5.545272 9.418831
WTR 9.259337 9.491348 2.186351
WTR 8.752848 9.828048 5.512729
WTR 9.175404 10.618847 8.732785
27
Lattice="11.209513607476868 0 0 0 11.209513607476868 0 0 0 11.209513607476868" Properties=species:S:1:pos:R:3 Step=20
WTR 1.402522 1.191621 1.032380
WTR 1.922376 1.867430 5.466742
WTR 0.755918 2.354212 8.126658
WTR 2.455609 6.592628 1.918210
WTR 1.753803 5.886889 4.871499
WTR 1.747910 5.033386 9.524723
WTR 1.144253 9.347177 2.659388
WTR 2.194852 9.308918 5.811165
POX 1.539912 9.531220 9.758851
POX 5.947441 2.265423 2.388543
POX 5.796570 1.288526 6.181611
POX 5.267170 1.815051 9.861243
WTR 5.489433 6.192770 1.415652
POX 5.223537 5.546708 5.276050
WTR 5.591264 5.167803 9.522269
WTR 5.882270 9.082208 1.992226
WTR 5.523732 9.156973 4.765514
POX 6.105893 8.559607 9.314614
WTR 9.740089 0.947138 1.649398
WTR 10.233095 1.195512 4.616136
WTR 9.687087 1.961839 9.967021
WTR 8.496319 6.405297 1.273970
POX 9.736636 5.919712 5.277369
WTR 8.885553 5.509310 9.387581
WTR 9.256063 9.453315 2.252008
WTR 8.740388 9.823002 5.482061
WTR 9.153378 10.707347 8.660850
27
Lattice="11.209513607476868 0 0 0 11.209513607476868 0 0 0 11.209513607476868" Properties=species:S:1:pos:R:3 Step=21
WTR 1.415295 1.191655 1.026797
WTR 1.985058 1.859657 5.435887
WTR 0.693714 2.369653 8.049969
WTR 2.491594 6.605058 1.942644
WTR 1.750329 5.916981 4.804351
WTR 1.726154 4.996916 9.553985
WTR 1.097050 9.391134 2.682935
WTR 2.221916 9.333567 5.869383
POX 1.545818 9.522072 9.761158
POX 5.974116 2.295140 2.397816
POX 5.815381 1.270565 6.216777
POX 5.235540 1.778594 9.877671
WTR 5.454365 6.168493 1.422639
POX 5.238810 5.529769 5.282920
WTR 5.579009 5.155883 9.509212
WTR 5.918359 9.112408 1.927217
WTR 5.492395 9.164119 4.745787
POX 6.120865 8.565092 9.306276
WTR 9.726354 0.920810 1.605044
WTR 10.288127 1.155723 4.592231
WTR 9.678784 2.001394 10.018568
WTR 8.461758 6.477490 1.319049
POX 9.705912 5.928932 5.267507
WTR 8.906000 5.474239 9.364858
WTR 9.248652 9.406445 2.322837
WTR 8.729945 9.811437 5.448295
WTR 9.128889 10.788044 8.586617
27
Lattice="11.209513607476868 0 0 0 11.209513607476868 0 0 0 11.209513607476868" Properties=species:S:1:pos:R:3 Step=22
WTR 1.431337 1.194249 1.025963
WTR 2.050012 1.851775 5.402470
WTR 0.630753 2.381068 7.974644
WTR 2.522087 6.619079 1.964000
WTR 1.763262 5.950369 4.739871
WTR 1.704592 4.962591 9.585139
WTR 1.055756 9.434707 2.705130
WTR 2.247445 9.357232 5.922005
POX 1.551821 9.511852 9.762400
POX 6.001094 2.323310 2.407289
POX 5.835873 1.253457 6.244160
POX 5.201783 1.739980 9.898339
WTR 5.421952 6.137583 1.423506
POX 5.253664 5.513360 5.292785
WTR 5.567108 5.151487 9.499735
WTR 5.956170 9.145967 1.853752
WTR 5.458181 9.171956 4.733710
POX 6.135692 8.573617 9.297835
WTR 9.708278 0.899233 1.551642
WTR 10.343376 1.122225 4.576570
WTR 9.670369 2.045413 10.074042
WTR 8.432024 6.545160 1.355098
POX 9.669877 5.936392 5.259935
WTR 8.926399 5.440653 9.350892
WTR 9.237592 9.356846 2.396140
WTR 8.721007 9.793968 5.412408
WTR 9.102966 10.862688 8.511950
27
Lattice="11.209513607476868 0 0 0 11.209513607476868 0 0 0 11.209513607476868" Properties=species:S:1:pos:R:3 Step=23
WTR 1.449191 1.199178 1.029473
WTR 2.116702 1.843994 5.367632
WTR 0.566192 2.388998 7.899662
WTR 2.547051 6.636149 1.979966
WTR 1.785776 5.987412 4.680879
WTR 1.682919 4.929309 9.618129
WTR 1.021176 9.477909 2.726628
WTR 2.271494 9.379973 5.968843
POX 1.557735 9.500568 9.762859
POX 6.028715 2.350100 2.417164
POX 5.858446 1.237177 6.264034
POX 5.165465 1.699824 9.923471
WTR 5.394304 6.102435 1.418088
POX 5.267811 5.497569 5.305648
WTR 5.555388 5.152078 9.493767
WTR 5.994735 9.180798 1.778145
WTR 5.421199 9.179969 4.723760
POX 6.150759 8.584523 9.288916
WTR 9.686796 0.876505 1.495153
WTR 10.398830 1.093676 4.567333
WTR 9.662437 2.093071 10.127603
WTR 8.405818 6.607947 1.382080
POX 9.630621 5.942147 5.254323
WTR 8.946395 5.408526 9.345264
WTR 9.223673 9.309846 2.469464
WTR 8.712802 9.771339 5.375650
WTR 9.076359 10.934290 8.438109
27
Lattice="11.209513607476868 0 0 0 11.209513607476868 0 0 0 11.209513607476868" Properties=species:S:1:pos:R:3 Step=24
WTR 1.467593 1.206252 1.036984
WTR 2.184995 1.836485 5.332183
WTR 0.499250 2.394019 7.823500
WTR 2.567144 6.657846 1.987424
WTR 1.811279 6.028571 4.630714
WTR 1.660634 4.895770 9.653157
WTR 0.993645 9.521287 2.748050
WTR 2.294322 9.402101 6.010119
POX 1.563461 9.488111 9.762816
POX 6.057587 2.375885 2.427556
POX 5.883615 1.221638 6.277293
POX 5.125898 1.658298 9.953046
WTR 5.372940 6.064614 1.406099
POX 5.281142 5.482333 5.321663
WTR 5.543518 5.155110 9.491272
WTR 6.033394 9.215707 1.704991
WTR 5.381213 9.187813 4.711758
POX 6.166555 8.597354 9.278972
WTR 9.662881 0.847772 1.441439
WTR 10.454670 1.068557 4.562971
WTR 9.655228 2.144835 10.173374
WTR 8.381541 6.664795 1.399971
POX 9.589718 5.946258 5.250310
WTR 8.965943 5.377585 9.347510
WTR 9.208074 9.269540 2.539982
WTR 8.704287 9.744409 5.340222
WTR 9.049531 11.005845 8.365812
27
Lattice="11.209513607476868 0 0 0 11.209513607476868 0 0 0 11.209513607476868" Properties=species:S:1:pos:R:3 Step=25
WTR 1.485331 1.215281 1.048244
WTR 2.254563 1.829426 5.296806
WTR 0.429709 2.396656 7.744772
WTR 2.583445 6.685651 1.982710
WTR 1.834396 6.074199 4.593202
WTR 1.637248 4.860808 9.690419
WTR 0.973431 9.565483 2.769767
WTR 2.316126 9.423947 6.045917
POX 1.568915 9.474348 9.762537
POX 6.088323 2.400967 2.438460
POX 5.911786 1.206826 6.285052
POX 5.082451 1.615478 9.986719
WTR 5.358813 6.025266 1.387244
POX 5.293478 5.467612 5.341031
WTR 5.531191 5.158357 9.492339
WTR 6.071552 9.250097 1.637881
WTR 5.337904 9.195200 4.694894
POX 6.183548 8.611703 9.267368
WTR 9.637603 0.809175 1.395637
WTR 10.510724 1.045438 4.562822
WTR 9.648904 2.201975 10.205731
WTR 8.357791 6.713982 1.408279
POX 9.548391 5.948716 5.247614
WTR 8.985192 5.347603 9.357014
WTR 9.192611 9.239000 2.603366
WTR 8.694079 9.714412 5.310232
WTR 9.022716 11.079544 8.296087
27
Lattice="11.209513607476868 0 0 0 11.209513607476868 0 0 0 11.209513607476868" Properties=species:S:1:pos:R:3 Step=26
WTR 1.501107 1.225987 1.062985
WTR 2.324361 1.823028 5.262275
WTR 0.358353 2.397299 7.662788
WTR 2.597091 6.720401 1.962983
WTR 1.851251 6.124390 4.571482
WTR 1.612470 4.823673 9.729821
WTR 0.960858 9.610809 2.791753
WTR 2.336850 9.445693 6.075941
POX 1.573970 9.459238 9.762274
POX 6.121320 2.425392 2.449680
POX 5.942993 1.192885 6.288477
POX 5.034908 1.571710 10.023656
WTR 5.352227 5.985644 1.361530
POX 5.304434 5.453489 5.363815
WTR 5.518258 5.160001 9.497080
WTR 6.108404 9.283532 1.580215
WTR 5.291248 9.201851 4.671493
POX 6.202037 8.627105 9.253518
WTR 9.612261 0.758668 1.360825
WTR 10.566130 1.023365 4.566519
WTR 9.643703 2.264852 10.221359
WTR 8.333708 6.753355 1.406186
POX 9.507862 5.949439 5.246055
WTR 9.004022 5.318963 9.373411
WTR 9.179786 9.220227 2.653170
WTR 8.680508 9.683198 5.292028
WTR 8.996460 11.156132 8.230289
27
Lattice="11.209513607476868 0 0 0 11.209513607476868 0 0 0 11.209513607476868" Properties=species:S:1:pos:R:3 Step=27
WTR 1.513569 1.237933 1.080820
WTR 2.392488 1.817521 5.229506
WTR 0.287168 2.396482 7.577926
WTR 2.608689 6.761740 1.928187
WTR 1.859918 6.179072 4.566205
WTR 1.586312 4.784177 9.770839
WTR 0.956108 9.656964 2.813634
WTR 2.356150 9.467318 6.099629
POX 1.578443 9.442906 9.762250
POX 6.156546 2.448878 2.460826
POX 5.976698 1.180086 6.288734
POX 4.983700 1.527781 10.062503
WTR 5.352657 5.947397 1.329604
POX 5.313387 5.440222 5.389777
WTR 5.504792 5.158698 9.505439
WTR 6.142886 9.315632 1.535103
WTR 5.241773 9.207510 4.640911
POX 6.222072 8.642912 9.237043
WTR 9.588445 0.697169 1.336854
WTR 10.619534 1.001836 4.573637
WTR 9.639865 2.331323 10.220579
WTR 8.309081 6.781017 1.393142
POX 9.469528 5.948325 5.245503
WTR 9.021983 5.292818 9.396211
WTR 9.172217 9.213794 2.682723
WTR 8.662073 9.652942 5.292382
WTR 8.971922 0.025433 8.170067
27
Lattice="11.209513607476868 0 0 0 11.209513607476868 0 0 0 11.209513607476868" Properties=species:S:1:pos:R:3 Step=28
WTR 1.521510 1.250580 1.101276
WTR 2.456763 1.813080 5.199286
WTR 0.218690 2.394948 7.491300
WTR 2.618341 6.808169 1.881616
WTR 1.860506 6.238235 4.574716
WTR 1.558963 4.742528 9.812745
WTR 0.959091 9.703353 2.834806
WTR 2.373547 9.488734 6.116558
POX 1.582144 9.425578 9.762630
POX 6.193715 2.471016 2.471389
POX 6.011893 1.168698 6.286882
POX 4.929700 1.484659 10.101739
WTR 5.358669 5.912364 1.292776
POX 5.319623 5.428141 5.418441
WTR 5.491029 5.153629 9.517031
WTR 6.173990 9.346107 1.504631
WTR 5.190366 9.212033 4.603354
POX 6.243525 8.658400 9.217850
WTR 9.567840 0.628350 1.320777
WTR 10.669267 0.980617 4.583667
WTR 9.637646 2.396926 10.206639
WTR 8.284399 6.796194 1.369393
POX 9.434719 5.945335 5.245824
WTR 9.038437 5.271024 9.424539
WTR 9.171407 9.219000 2.688953
WTR 8.638291 9.625113 5.314241
WTR 8.950696 0.104683 8.117717
27
Lattice="11.209513607476868 0 0 0 11.209513607476868 0 0 0 11.209513607476868" Properties=species:S:1:pos:R:3 Step=29
WTR 1.524039 1.263458 1.123985
WTR 2.515561 1.809761 5.171969
WTR 0.155206 2.393467 7.404011
WTR 2.625979 6.857857 1.828230
WTR 1.854443 6.302163 4.592320
WTR 1.530527 4.698911 9.855048
WTR 0.969450 9.749543 2.854708
WTR 2.388647 9.510002 6.126745
POX 1.584924 9.407405 9.763498
POX 6.232642 2.491538 2.480887
POX 6.047435 1.158923 6.283709
POX 4.873648 1.443036 10.140183
WTR 5.368182 5.882128 1.252679
POX 5.322510 5.417468 5.449383
WTR 5.477221 5.144416 9.531123
WTR 6.201145 9.374907 1.489267
WTR 5.137715 9.215435 4.559383
POX 6.266292 8.672990 9.196045
WTR 9.551951 0.557112 1.308496
WTR 10.714012 0.959458 4.595973
WTR 9.637445 2.456445 10.183764
WTR 8.260565 6.799543 1.335886
POX 9.404319 5.940496 5.246857
WTR 9.052703 5.256054 9.457338
WTR 9.176890 9.233873 2.675498
WTR 8.610168 9.599676 5.354132
WTR 8.934561 0.182560 8.075546
27
Lattice="11.209513607476868 0 0 0 11.209513607476868 0 0 0 11.209513607476868" Properties=species:S:1:pos:R:3 Step=30
WTR 1.520450 1.276151 1.148822
WTR 2.568175 1.807505 5.147396
WTR 0.098282 2.393048 7.316566
WTR 2.631846 6.909450 1.772427
WTR 1.843601 6.371670 4.614454
WTR 1.500824 4.653154 9.897774
WTR 0.986790 9.795536 2.872967
WTR 2.401219 9.531446 6.130626
POX 1.586676 9.388335 9.764852
POX 6.273498 2.510451 2.489000
POX 6.082321 1.150883 6.279714
POX 4.815739 1.403081 10.177323
WTR 5.378900 5.857801 1.210930
POX 5.321535 5.408265 5.482485
WTR 5.463523 5.130862 9.546682
WTR 6.224332 9.402254 1.488042
WTR 5.083939 9.217817 4.509392
POX 6.290462 8.686366 9.171787
WTR 9.542060 0.488495 1.295727
WTR 10.753124 0.937947 4.609546
WTR 9.639719 2.505068 10.155598
WTR 8.238632 6.792680 1.293584
POX 9.378654 5.933844 5.248428
WTR 9.064117 5.250934 9.493711
WTR 9.186655 9.254768 2.650897
WTR 8.579622 9.575465 5.404641
WTR 8.925414 0.257953 8.045367
27
Lattice="11.209513607476868 0 0 0 11.209513607476868 0 0 0 11.209513607476868" Properties=species:S:1:pos:R:3 Step=31
WTR 1.510025 1.288212 1.175809
WTR 2.614423 1.806196 5.125145
WTR 0.049178 2.394955 7.229244
WTR 2.636590 6.962211 1.717216