27
Lattice="11.209513607476866 0 0 0 11.209513607476866 0 0 0 11.209513607476866" Properties=species:S:1:pos:R:3 Step=0
POX 1.856488 1.773178 1.872930
WTR 1.853814 1.854516 5.573317
POX 1.812547 1.888644 9.300894
WTR 1.826730 5.632160 1.871020
POX 1.797704 5.608509 5.546680
WTR 1.922949 5.672900 9.342021
WTR 1.929403 9.263295 1.869785
POX 1.789440 9.324475 5.527321
WTR 1.798570 9.361437 9.296222
WTR 5.533935 1.817090 1.843289
POX 5.599957 1.809282 5.638988
WTR 5.600203 1.866436 9.322435
WTR 5.659899 5.619603 1.801481
WTR 5.645035 5.689069 5.603032
WTR 5.677248 5.570320 9.357077
WTR 5.592038 9.331171 1.916751
WTR 5.613653 9.423775 5.616125
WTR 5.528566 9.314891 9.407610
WTR 9.323891 1.779190 1.819584
POX 9.261126 1.964794 5.690106
WTR 9.398477 1.886614 9.396145
WTR 9.276873 5.568240 1.868892
WTR 9.314645 5.521462 5.694216
WTR 9.327034 5.606517 9.300659
WTR 9.295184 9.320177 1.929927
WTR 9.382565 9.321216 5.515827
POX 9.397223 9.302213 9.356534
27
Lattice="11.209513607476866 0 0 0 11.209513607476866 0 0 0 11.209513607476866" Properties=species:S:1:pos:R:3 Step=1
POX 1.889217 1.249540 1.671738
WTR 1.803795 1.857694 5.324186
POX 1.792515 1.775213 8.783718
WTR 2.003808 5.880556 1.625056
POX 1.626596 5.324160 5.657091
WTR 2.010774 5.860939 9.476802
WTR 1.537100 9.010181 1.789873
POX 2.058851 9.424223 5.400026
WTR 2.022601 9.418624 9.815815
WTR 5.844014 1.982272 2.225809
POX 5.389559 1.526181 6.352311
WTR 5.554067 1.548911 9.932300
WTR 5.581710 5.611336 1.620827
WTR 5.802790 5.409457 5.414843
WTR 5.593909 5.100721 9.488150
WTR 5.610165 9.499972 1.705440
WTR 5.812401 8.945010 5.891383
WTR 5.651376 9.121668 9.423718
WTR 9.276286 1.758951 1.822950
POX 9.608428 2.315554 5.432670
WTR 9.282655 2.048655 9.799238
WTR 9.160399 5.719010 1.486585
WTR 9.201194 6.086453 5.390246
WTR 9.112778 5.633064 8.710543
WTR 9.216848 9.307211 1.964197
WTR 9.087575 9.597348 5.663190
POX 9.401859 9.681494 9.325066
27
Lattice="11.209513607476866 0 0 0 11.209513607476866 0 0 0 11.209513607476866" Properties=species:S:1:pos:R:3 Step=2
POX 1.974532 1.048629 1.418247
WTR 2.409760 1.816529 4.661884
POX 1.690238 1.799114 8.389492
WTR 2.046052 5.068375 1.810435
POX 1.593293 5.080600 5.759482
WTR 1.886827 5.860861 9.287223
WTR 1.074413 8.491025 1.968119
POX 2.264983 9.592148 5.460312
WTR 2.336456 9.438780 9.714765
WTR 5.883018 2.197996 3.056872
POX 5.268367 1.287857 6.817975
WTR 5.500394 1.161556 10.889111
WTR 5.487969 5.755380 1.790202
WTR 5.602162 4.874008 5.288296
WTR 5.458843 4.698431 9.136891
WTR 5.380571 9.619561 1.885259
WTR 5.765544 8.381774 5.901918
WTR 5.721717 8.723634 9.360536
WTR 9.375754 1.750077 1.922588
POX 9.734943 2.589564 5.380106
WTR 9.089839 2.638713 9.596892
WTR 9.328329 5.660242 1.071457
WTR 9.131218 6.796059 4.632919
WTR 9.156470 5.767217 8.469310
WTR 9.038141 9.327704 2.073764
WTR 9.211490 10.216856 5.584714
POX 9.461791 9.912858 9.325499
27
Lattice="11.209513607476866 0 0 0 11.209513607476866 0 0 0 11.209513607476866" Properties=species:S:1:pos:R:3 Step=3
POX 1.971609 0.783397 0.817950
WTR 2.863320 2.052080 4.561576
POX 1.356612 1.852342 8.244742
WTR 1.904543 4.059352 2.004987
POX 1.673338 5.357760 5.773075
WTR 1.665410 5.845429 9.493175
WTR 0.964309 8.020720 2.144029
POX 2.304940 9.495615 5.612680
WTR 2.410898 9.495484 9.433100
WTR 6.106284 2.013603 3.603389
POX 5.596204 0.937800 7.275788
WTR 5.602438 1.007556 11.260947
WTR 5.581746 6.035647 1.745356
WTR 5.430210 4.659062 5.550890
WTR 5.299597 4.351359 8.900088
WTR 4.877857 9.535015 2.425284
WTR 5.851392 8.015119 5.690143
WTR 6.002783 8.221350 9.476097
WTR 9.532975 1.728377 1.574882
POX 9.593785 2.930483 5.495516
WTR 8.894086 2.818799 9.284285
WTR 9.535965 5.491426 0.615707
WTR 9.237463 6.936192 4.158104
WTR 9.288487 6.415553 7.971635
WTR 8.519556 9.540198 1.868254
WTR 9.383883 10.573610 5.563410
POX 9.587655 10.096119 9.383003
27
Lattice="11.209513607476866 0 0 0 11.209513607476866 0 0 0 11.209513607476866" Properties=species:S:1:pos:R:3 Step=4
POX 1.904914 0.318931 0.528672
WTR 2.916697 1.682359 4.571400
POX 1.085160 1.979521 8.008386
WTR 1.691209 4.046983 2.025790
POX 1.755222 5.783779 5.744195
WTR 1.530306 5.793005 10.035457
WTR 1.129981 7.691587 2.137311
POX 2.215187 9.551100 5.719795
WTR 2.589284 9.146639 9.113794
WTR 6.826389 1.404260 3.508718
POX 6.002832 0.429193 7.719321
WTR 5.990071 1.077619 11.276353
WTR 5.663668 6.044451 1.588533
WTR 5.475455 4.674615 5.753372
WTR 4.974545 4.165876 9.338471
WTR 4.180775 9.461272 2.892252
WTR 6.140783 8.125782 5.613052
WTR 6.300768 7.803992 9.711221
WTR 9.709725 1.877576 1.370672
POX 9.305147 3.395312 5.475743
WTR 8.574961 2.862618 9.046433
WTR 9.589088 5.443507 0.208887
WTR 9.357880 6.675092 3.927323
WTR 9.443789 7.086395 7.408618
WTR 7.953305 9.681154 1.541737
WTR 9.556401 10.345619 5.500220
POX 9.725387 10.251891 9.464966
27
Lattice="11.209513607476866 0 0 0 11.209513607476866 0 0 0 11.209513607476866" Properties=species:S:1:pos:R:3 Step=5
POX 1.901976 -0.114040 0.470382
WTR 3.153488 1.847861 4.394727
POX 0.960041 2.242927 7.710881
WTR 1.617590 4.022912 2.164028
POX 1.818796 5.793382 5.750474
WTR 1.550605 5.603848 10.181836
WTR 1.246931 7.659300 1.980701
POX 1.933828 9.964809 5.865222
WTR 3.156944 8.382635 9.226507
WTR 7.252530 0.808324 3.743194
POX 6.285909 -0.198747 7.972107
WTR 6.041829 1.327803 11.540299
WTR 5.659800 5.705722 1.741452
WTR 5.520991 4.343476 5.741005
WTR 4.347689 3.909657 9.989065
WTR 4.134893 9.405822 2.618444
WTR 6.431727 8.463404 5.619450
WTR 6.593630 7.477140 9.743737
WTR 10.034711 2.104884 1.338861
POX 9.013700 3.800142 5.352465
WTR 8.261667 3.077114 8.970179
WTR 9.236726 5.673900 -0.160585
WTR 9.327505 6.726123 3.181820
WTR 9.758987 7.419024 7.137553
WTR 7.525618 9.308979 1.441918
WTR 9.752826 10.404488 5.205025
POX 9.889623 10.343611 9.578145
27
Lattice="11.209513607476866 0 0 0 11.209513607476866 0 0 0 11.209513607476866" Properties=species:S:1:pos:R:3 Step=6
POX 2.132652 -0.255301 0.452616
WTR 3.780681 2.151051 4.006804
POX 0.846551 2.577101 7.607946
WTR 1.623066 3.988833 2.351981
POX 1.971009 5.801107 5.704433
WTR 0.965329 5.371166 9.839241
WTR 1.266344 7.734869 1.902399
POX 1.869315 10.240445 6.122774
WTR 3.769109 7.829831 9.218168
WTR 6.831246 0.679986 4.154957
POX 6.250614 -0.637547 8.201364
WTR 5.956850 1.540545 12.084416
WTR 5.531825 5.108323 2.349360
WTR 5.180218 4.188173 6.097867
WTR 3.817977 3.324028 10.200830
WTR 4.616455 9.148535 2.662403
WTR 6.477981 7.990277 5.147098
WTR 6.731345 7.074704 9.136547
WTR 10.112525 2.170339 1.340664
POX 8.890350 4.122715 5.147655
WTR 7.899545 3.140734 8.824606
WTR 9.162871 5.850540 -0.506463
WTR 9.316549 6.960582 2.653446
WTR 10.180500 7.360774 7.111585
WTR 7.402895 8.985286 1.096828
WTR 9.873914 10.736796 4.756277
POX 10.023892 10.332632 9.650699
27
Lattice="11.209513607476866 0 0 0 11.209513607476866 0 0 0 11.209513607476866" Properties=species:S:1:pos:R:3 Step=7
POX 2.574439 -0.146519 0.441464
WTR 3.489696 1.801826 3.761767
POX 0.598877 2.633755 7.620167
WTR 1.393949 4.207781 2.229146
POX 2.202187 6.108822 5.488685
WTR 1.015229 5.623890 9.580512
WTR 1.482807 7.710305 1.895042
POX 2.161016 10.255088 6.381245
WTR 3.320767 7.649982 9.226237
WTR 6.615481 0.575154 4.896306
POX 5.989608 -0.780854 8.332453
WTR 6.238037 1.488407 12.329885
WTR 5.479374 4.749852 2.762647
WTR 5.117785 4.138586 7.042660
WTR 3.484913 2.824283 10.022481
WTR 4.372751 8.946329 2.956087
WTR 6.628712 7.254349 5.027719
WTR 6.970362 6.463591 8.099128
WTR 9.836616 1.980351 1.260325
POX 8.853881 4.291043 4.932121
WTR 7.620593 2.752382 8.678850
WTR 8.991798 5.663169 -0.292343
WTR 9.513123 7.037417 2.921239
WTR 10.299560 7.497170 7.076356
WTR 7.350697 9.234938 0.283601
WTR 10.042242 11.001573 4.243542
POX 10.125592 10.311776 9.599330
27
Lattice="11.209513607476866 0 0 0 11.209513607476866 0 0 0 11.209513607476866" Properties=species:S:1:pos:R:3 Step=8
POX 2.924557 -0.133266 0.415302
WTR 2.405266 1.518813 3.868405
POX 0.239509 2.545950 7.514645
WTR 1.023805 4.224084 1.948820
POX 2.476399 6.381984 5.221328
WTR 0.845195 5.657981 9.713182
WTR 1.569896 7.784487 1.525737
POX 2.438417 10.224220 6.576168
WTR 3.509303 8.073831 9.359949
WTR 7.072697 0.419765 5.503492
POX 5.673297 -0.844571 8.462722
WTR 6.490804 1.397623 12.343664
WTR 5.353973 4.570145 2.736228
WTR 4.503966 3.660950 7.188480
WTR 3.428595 2.880645 9.945618
WTR 4.391443 9.000614 3.377829
WTR 6.595831 7.251760 4.722939
WTR 7.412504 6.214946 8.071003
WTR 9.778284 1.792706 1.010424
POX 8.884170 4.069039 4.824332
WTR 7.954536 2.057771 8.782296
WTR 8.323904 5.318183 0.251540
WTR 9.677496 7.885508 2.970283
WTR 10.287290 7.834446 6.786880
WTR 6.996320 8.994304 0.318431
WTR 10.424394 11.172241 3.857513
POX 10.383401 10.357092 9.473460
27
Lattice="11.209513607476866 0 0 0 11.209513607476866 0 0 0 11.209513607476866" Properties=species:S:1:pos:R:3 Step=9
POX 3.106604 -0.199822 0.464083
WTR 2.038541 1.852984 4.056982
POX 0.135615 2.554354 7.388199
WTR 0.709516 4.307604 1.853350
POX 2.656156 6.415066 4.980708
WTR 0.125449 5.578482 9.672826
WTR 1.532707 7.769834 1.099972
POX 2.282993 10.276013 6.593852
WTR 3.414242 7.324667 9.738919
WTR 7.611298 0.501269 5.234208
POX 5.933198 -0.730295 8.717658
WTR 6.348002 1.268014 12.548969
WTR 4.892936 4.300333 2.566795
WTR 4.259786 3.262704 6.218866
WTR 3.290028 3.442676 10.473837
WTR 4.359832 9.801442 3.531532
WTR 6.826760 7.268762 4.773805
WTR 7.689538 5.981294 8.502489
WTR 10.165737 1.728064 0.599739
POX 8.862648 3.851763 4.552675
WTR 8.160363 1.933723 8.959809
WTR 7.724821 4.923569 0.859239
WTR 9.668596 8.444178 2.842726
WTR 10.378441 8.025113 6.265216
WTR 6.791520 8.381314 0.861688
WTR 10.603637 11.249324 3.862042
POX 10.629274 10.198433 9.496434
27
Lattice="11.209513607476866 0 0 0 11.209513607476866 0 0 0 11.209513607476866" Properties=species:S:1:pos:R:3 Step=10
POX 3.032366 -0.132540 0.379513
WTR 2.105209 2.493190 3.782111
POX 0.355676 2.671145 7.332074
WTR 0.402448 4.754435 2.094896
POX 2.725624 6.425652 4.793497
WTR -0.650970 5.739016 9.401111
WTR 1.344053 7.741678 1.232642
POX 2.199989 10.299345 6.668006
WTR 3.776112 6.565907 9.277857
WTR 7.452565 0.231530 5.281734
POX 6.298725 -0.816483 8.871059
WTR 6.626125 1.044034 12.804526
WTR 4.306057 4.234842 2.511522
WTR 4.843367 2.792590 6.108422
WTR 3.284000 3.795281 10.586661
WTR 4.589532 10.511501 3.997683
WTR 6.855000 7.157248 5.227087
WTR 7.508187 5.913682 8.681281
WTR 10.595763 1.679747 0.416880
POX 8.756142 3.837804 4.177125
WTR 7.946068 2.666132 9.076533
WTR 7.508302 4.556089 1.098071
WTR 9.523710 8.196562 2.252016
WTR 10.408295 7.887582 5.984765
WTR 6.287666 7.940051 1.103398
WTR 10.757647 11.481745 3.970516
POX 10.724578 9.714039 9.634597
27
Lattice="11.209513607476866 0 0 0 11.209513607476866 0 0 0 11.209513607476866" Properties=species:S:1:pos:R:3 Step=11
POX 2.966077 -0.021847 0.230535
WTR 1.885470 2.446459 3.718311
POX 0.580305 2.868182 7.344349
WTR -0.031824 5.214677 2.005611
POX 2.732561 6.552544 4.827111
WTR -0.551071 5.822594 9.337549
WTR 1.972043 8.020757 1.232683
POX 2.288219 10.251745 6.850820
WTR 3.798879 6.932674 8.250275
WTR 7.760119 -0.125596 5.754361
POX 6.593142 -1.027592 9.011984
WTR 7.170003 0.695138 12.805648
WTR 4.643646 4.454769 2.268742
WTR 5.622979 2.602986 6.707022
WTR 3.062714 3.206746 10.254050
WTR 4.541659 10.704357 4.006197
WTR 6.539187 7.172765 5.506141
WTR 6.852927 6.403990 8.619588
WTR 10.918898 1.712069 0.248956
POX 8.645096 3.779303 4.215973
WTR 7.801224 2.869813 8.949963
WTR 7.391117 4.514702 0.451999
WTR 9.044523 8.085807 1.842266
WTR 10.399410 7.623289 5.856758
WTR 5.303162 7.829864 1.134752
WTR 10.793038 11.249477 3.994986
POX 10.589655 9.243699 9.765963
27
Lattice="11.209513607476866 0 0 0 11.209513607476866 0 0 0 11.209513607476866" Properties=species:S:1:pos:R:3 Step=12
POX 3.100760 0.054438 0.061465
WTR 2.128472 2.597049 3.709351
POX 0.732654 3.001193 7.204175
WTR -0.238632 5.492327 1.732555
POX 2.634039 6.571799 4.661297
WTR -0.292047 5.401879 9.419002
WTR 1.690145 7.914113 1.398989
POX 2.372747 10.387971 7.135369
WTR 2.912788 7.159548 8.381020
WTR 8.513766 -0.468992 6.132732
POX 6.657583 -1.148872 9.307434
WTR 7.760033 0.349790 12.675429
WTR 4.910081 4.386025 2.367489
WTR 5.289914 2.600845 6.740963
WTR 3.223839 3.510544 9.608303
WTR 4.397675 10.760333 3.616514
WTR 6.254905 7.385988 5.013489
WTR 7.161309 6.644814 8.850723
WTR 10.824149 1.837351 0.014079
POX 8.453908 3.655899 4.453490
WTR 8.522158 2.306938 8.720088
WTR 7.659294 4.718928 0.182558
WTR 8.314045 8.167725 1.730409
WTR 10.249433 7.300283 5.772095
WTR 5.207843 7.928291 1.024407
WTR 10.776037 10.477740 3.739599
POX 10.471737 9.074331 9.859693
27
Lattice="11.209513607476866 0 0 0 11.209513607476866 0 0 0 11.209513607476866" Properties=species:S:1:pos:R:3 Step=13
POX 3.185950 0.209411 -0.049764
WTR 2.145410 2.561706 3.428730
POX 0.782675 3.006897 6.691140
WTR -0.581521 4.942647 2.114369
POX 2.473307 6.477817 4.442919
WTR -0.338487 5.350319 9.718979
WTR 1.311485 8.201298 1.315321
POX 2.459648 10.704058 7.230140
WTR 2.588404 6.874862 9.472466
WTR 8.915842 -0.721230 6.419217
POX 6.418722 -0.977452 9.489455
WTR 8.049656 0.569277 12.774642
WTR 5.132813 4.047044 2.502979
WTR 4.713390 2.538246 6.417986
WTR 4.157806 4.014006 9.737141
WTR 4.451580 10.806681 3.563953
WTR 6.214403 7.624811 4.715939
WTR 7.364666 6.329247 8.292819
WTR 11.037741 1.874723 0.124220
POX 8.287028 3.506832 4.686897
WTR 8.952163 1.772513 8.377205
WTR 7.836803 4.392570 0.410461
WTR 8.387698 8.091565 2.066161
WTR 10.005958 6.839128 5.848587
WTR 4.925873 7.813152 0.678007
WTR 11.335647 10.091944 3.261430
POX 10.529280 9.099278 9.855162
27
Lattice="11.209513607476866 0 0 0 11.209513607476866 0 0 0 11.209513607476866" Properties=species:S:1:pos:R:3 Step=14
POX 3.094383 0.525485 0.077191
WTR 2.065763 2.283012 2.720648
POX 0.773011 3.273143 6.269687
WTR -0.447617 4.453248 2.944006
POX 2.375349 6.406857 4.398311
WTR -0.633290 4.984142 9.726966
WTR 1.564445 7.911261 1.322992
POX 2.619847 10.634945 7.173105
WTR 2.487877 7.056553 9.277490
WTR 9.245699 -1.348895 6.022863
POX 6.387570 -0.859213 9.371364
WTR 8.023563 0.877773 13.138217
WTR 5.183565 3.758926 2.677656
WTR 4.506146 2.556773 6.070744
WTR 5.217965 3.910024 10.003957
WTR 4.707265 10.780517 3.736558
WTR 6.009988 7.799870 4.850636
WTR 7.167983 5.936917 7.667836
WTR 11.205563 1.931514 0.208942
POX 8.003404 3.242017 5.000623
WTR 8.867785 1.809885 8.402539
WTR 7.789736 3.901427 0.340011
WTR 8.897496 7.934266 2.291271
WTR 10.097172 6.460731 5.955847
WTR 4.891259 7.458603 0.751472
WTR 11.611711 10.719151 3.777984
POX 10.446552 9.329784 9.631030
27
Lattice="11.209513607476866 0 0 0 11.209513607476866 0 0 0 11.209513607476866" Properties=species:S:1:pos:R:3 Step=15
POX 3.275091 0.557984 -0.019510
WTR 2.161724 2.639306 2.978304
POX 0.776328 3.245658 6.255211
WTR -0.679703 4.525379 2.979595
POX 2.579190 6.522403 4.508928
WTR -0.632557 5.127605 9.460148
WTR 1.254267 8.010238 1.262699
POX 2.769359 10.393602 7.078074
WTR 2.529508 6.918755 7.922641
WTR 9.083118 -1.705505 5.629639
POX 6.423954 -0.887107 9.111282
WTR 7.887013 0.489949 13.565780
WTR 5.092045 3.881831 2.695049
WTR 4.248548 2.701562 6.234257
WTR 5.042456 3.509141 9.633235
WTR 4.981697 10.843813 3.761235
WTR 5.803841 7.817861 5.132974
WTR 6.579343 5.738964 7.558957
WTR 10.605357 1.835217 -0.069004
POX 7.678321 2.850254 5.351101
WTR 8.787167 1.855233 8.466967
WTR 8.279267 3.927082 0.720246
WTR 9.300565 7.800333 2.220901
WTR 10.321840 6.512879 6.201961
WTR 5.835278 7.178691 1.102980
WTR 11.863369 11.227726 4.311228
POX 10.386522 9.584015 9.425969
27
Lattice="11.209513607476866 0 0 0 11.209513607476866 0 0 0 11.209513607476866" Properties=species:S:1:pos:R:3 Step=16
POX 3.335930 0.401035 -0.084209
WTR 2.191265 3.118629 2.860008
POX 0.525453 2.954747 6.699322
WTR -0.806223 4.850411 3.060330
POX 2.802714 6.714257 4.180853
WTR -0.329209 5.706193 9.487607
WTR 1.550657 8.318264 0.664269
POX 2.914003 10.203254 7.033386
WTR 2.748373 6.401932 8.159186
WTR 8.570576 -1.367014 5.468166
POX 6.430109 -1.105061 8.803915
WTR 8.097231 -0.168307 13.502363
WTR 5.310959 4.331029 2.508831
WTR 4.104223 2.665256 6.545627
WTR 4.549624 3.232344 9.656745
WTR 4.711088 11.059462 3.648241
WTR 6.076828 7.989951 5.300027
WTR 6.264976 5.801529 8.036911
WTR 11.067339 1.248822 0.215545
POX 7.508722 2.479989 5.397722
WTR 8.807180 1.857351 8.743037
WTR 7.809457 4.251634 0.750702
WTR 9.398473 7.973990 2.086184
WTR 10.191924 6.797288 6.384181
WTR 6.416929 7.282407 1.077426
WTR 11.683404 11.170439 4.259925
POX 10.512496 9.678645 9.216585
27
Lattice="11.209513607476866 0 0 0 11.209513607476866 0 0 0 11.209513607476866" Properties=species:S:1:pos:R:3 Step=17
POX 3.422517 0.101981 -0.000493
WTR 2.089120 3.169861 2.559027
POX 0.205802 2.757176 7.095398
WTR -0.786232 4.864880 3.516438
POX 2.781821 6.937858 3.779391
WTR -0.351648 5.807895 10.250882
WTR 2.173163 8.119453 0.357843
POX 2.848478 10.033388 6.922628
WTR 2.969215 6.128032 8.795684
WTR 8.731644 -0.741277 5.748192
POX 6.548592 -1.367569 8.680529
WTR 8.054725 -0.031546 12.848455
WTR 5.312839 4.481893 2.845369
WTR 4.000371 2.590344 6.286777
WTR 4.422936 3.579571 10.255349
WTR 4.264539 11.244929 3.488392
WTR 6.100286 7.780528 5.246548
WTR 6.618528 5.946353 8.529722
WTR 11.192631 1.375108 0.884660
POX 7.485945 2.324333 5.212383
WTR 8.619876 1.958277 9.298640
WTR 7.993501 4.063462 0.032725
WTR 10.027043 8.117253 2.011919
WTR 10.038434 6.996925 6.158908
WTR 6.030242 7.983084 0.633702
WTR 11.597996 10.927867 3.885396
POX 10.657919 9.625336 8.962911
27
Lattice="11.209513607476866 0 0 0 11.209513607476866 0 0 0 11.209513607476866" Properties=species:S:1:pos:R:3 Step=18
POX 3.611193 -0.016507 -0.135299
WTR 2.319186 3.337062 2.488671
POX 0.007626 2.595411 7.461741
WTR -1.087671 4.502556 3.873828
POX 2.561059 7.236080 3.589385
WTR -0.365489 5.633189 10.872845
WTR 2.515645 7.393132 0.082552
POX 2.821104 9.849976 6.705114
WTR 2.988718 6.110065 8.384108
WTR 9.233496 -0.839421 5.881555
POX 6.629515 -1.586306 8.554287
WTR 7.380420 0.401793 12.174844
WTR 5.804052 4.693940 3.056519
WTR 3.571760 2.753917 6.282802
WTR 4.361512 3.624328 11.071105
WTR 4.249909 11.280280 3.656128
WTR 6.238661 7.459131 5.062784
WTR 7.414622 6.028248 8.599961
WTR 10.742034 1.617160 0.884879
POX 7.511976 2.475394 4.968774
WTR 8.200907 1.300274 9.105800
WTR 7.906525 4.507756 0.587221
WTR 10.545474 8.152411 1.907937
WTR 10.020174 7.053489 6.183441
WTR 5.634083 8.431216 0.708461
WTR 11.901075 10.668976 3.695182
POX 10.805221 9.567201 8.988102
27
Lattice="11.209513607476866 0 0 0 11.209513607476866 0 0 0 11.209513607476866" Properties=species:S:1:pos:R:3 Step=19
POX 3.484406 -0.007321 -0.429338
WTR 2.352074 3.499440 2.863949
POX -0.055200 2.510293 7.789314
WTR -0.752351 4.347384 3.846594
POX 2.370749 7.325689 3.595509
WTR -0.098604 5.125500 10.835852
WTR 2.731201 7.118785 -0.438809
POX 2.933832 9.780042 6.667007
WTR 3.054114 5.945631 7.075967
WTR 9.359474 -0.738362 5.436442
POX 6.507640 -1.976945 8.287044
WTR 6.756028 0.711110 12.192630
WTR 5.333645 5.294073 3.212207
WTR 3.468874 2.873537 6.425011
WTR 4.484945 3.741018 11.131812
WTR 4.804789 11.341878 3.751917
WTR 6.509236 7.610163 5.140302
WTR 8.048610 5.634601 8.512587
WTR 10.418890 1.736140 0.535350
POX 7.455669 2.342590 4.994776
WTR 7.767283 1.756564 8.721566
WTR 7.936993 4.761584 1.008884
WTR 10.237147 8.352882 1.749415
WTR 10.363397 6.893678 6.322759
WTR 5.957115 8.181074 1.432982
WTR 12.255192 10.964337 3.465199
POX 10.950695 9.469034 9.418881
27
Lattice="11.209513607476866 0 0 0 11.209513607476866 0 0 0 11.209513607476866" Properties=species:S:1:pos:R:3 Step=20
POX 3.177332 0.034568 -0.703920
WTR 2.417470 3.146141 3.058638
POX 0.041677 2.411702 7.971284
WTR -0.629290 4.408275 3.844690
POX 2.019316 7.412672 3.323106
WTR 0.411463 4.784231 10.610523
WTR 3.233714 7.214104 -1.076085
POX 2.853463 9.954874 6.784551
WTR 3.224744 6.075343 6.505384
WTR 9.528232 -0.840431 5.172981
POX 6.577058 -2.279290 8.448593
WTR 6.885842 1.038382 12.272432
WTR 5.006979 5.017180 3.573853
WTR 3.812479 2.214022 6.638132
WTR 4.592599 3.891382 10.513511
WTR 5.016554 11.032548 3.779728
WTR 7.062126 7.884031 4.942581
WTR 8.266552 5.147515 8.496027
WTR 10.294024 1.447363 0.329978
POX 7.363066 2.351389 5.051842
WTR 6.796084 2.111031 8.668908
WTR 8.159495 4.913690 1.143010
WTR 9.535478 8.504985 1.799099
WTR 10.978333 6.924074 6.453111
WTR 6.406532 8.182242 1.705647
WTR 12.549451 11.538218 3.035178
POX 10.949894 9.388686 9.784519
27
Lattice="11.209513607476866 0 0 0 11.209513607476866 0 0 0 11.209513607476866" Properties=species:S:1:pos:R:3 Step=21
POX 3.084459 0.279478 -0.659361
WTR 2.756848 3.176265 2.815387
POX 0.130176 2.173232 7.890560
WTR -0.926170 4.485569 4.074831
POX 1.590982 7.639750 2.748615
WTR 1.107391 5.017750 10.786768
WTR 3.644370 7.592054 -1.486056
POX 2.541665 9.949126 6.680907
WTR 3.737993 5.900264 6.639181
WTR 9.998663 -0.730940 5.270343
POX 6.803500 -2.456594 8.881012
WTR 6.950961 1.292457 12.300189
WTR 5.473980 4.944336 3.741144
WTR 3.937449 2.084238 6.761619
WTR 4.363650 4.262826 10.180562
WTR 4.824659 10.329390 3.763010
WTR 7.611803 7.603017 4.796836
WTR 8.429566 5.106380 8.336262
WTR 10.263461 1.240121 0.335343
POX 7.482071 2.447879 5.082692
WTR 6.376116 1.545349 8.902299
WTR 8.240129 4.985282 1.185357
WTR 9.515234 8.659957 2.153456
WTR 11.343986 7.083259 6.831178
WTR 5.802684 8.269182 1.133603
WTR 12.410212 11.031666 2.680379
POX 10.759399 9.147363 9.910413
27
Lattice="11.209513607476866 0 0 0 11.209513607476866 0 0 0 11.209513607476866" Properties=species:S:1:pos:R:3 Step=22
POX 3.109281 0.608479 -0.467761
WTR 2.800548 3.221542 2.480276
POX 0.148142 2.010962 7.748786
WTR -0.575806 4.638057 4.344492
POX 1.496126 7.459655 2.243036
WTR 1.094571 5.214644 10.988311
WTR 2.990729 8.125207 -1.768589
POX 2.247165 9.768982 6.482253
WTR 4.250244 5.813678 6.674215
WTR 10.145541 -0.436219 5.700419
POX 7.095153 -2.569134 8.999651
WTR 6.570702 1.418629 12.794636
WTR 5.674439 5.541138 3.349061
WTR 3.675003 2.477062 6.360412
WTR 4.530761 4.460311 10.158425
WTR 4.864104 9.901211 3.846444
WTR 7.990665 7.295097 5.368349
WTR 8.524389 5.010959 8.201854
WTR 10.299187 1.597739 0.269803
POX 7.687093 2.245593 5.244232
WTR 6.956144 0.795381 9.021258
WTR 8.346757 5.078710 0.832184
WTR 8.951243 9.040087 2.248928
WTR 11.471767 6.726822 7.023329
WTR 5.013082 8.191998 0.957994
WTR 12.283973 11.304462 2.646162
POX 10.738249 8.851849 9.986513
27
Lattice="11.209513607476866 0 0 0 11.209513607476866 0 0 0 11.209513607476866" Properties=species:S:1:pos:R:3 Step=23
POX 3.186108 0.901941 -0.410477
WTR 2.888044 3.463496 2.356636
POX 0.197796 2.116972 7.787000
WTR -0.067414 4.487703 4.176725
POX 1.506688 7.310203 2.192160
WTR 0.556629 4.602279 10.330793
WTR 3.140796 8.150323 -1.849760
POX 2.154877 9.731095 6.102290
WTR 4.737919 6.143117 6.635985
WTR 9.539808 -1.037789 5.715362
POX 6.920052 -2.961434 8.915530
WTR 6.139034 1.544325 13.316231
WTR 5.745981 5.805326 2.929319
WTR 3.570016 2.452478 5.894915
WTR 5.138288 4.398333 10.146700
WTR 5.234092 9.810746 4.258309
WTR 8.368556 7.214709 5.860137
WTR 8.416754 4.554452 8.260534
WTR 10.073899 2.023729 0.148384
POX 7.723320 2.105375 5.404022
WTR 7.513920 1.140352 8.975813
WTR 8.538882 5.301170 0.478689
WTR 8.098881 9.544364 2.191607
WTR 11.737971 6.002434 7.141310
WTR 4.749454 8.225338 0.885282
WTR 12.143030 11.674960 3.095560
POX 10.833015 8.820784 10.211504
27
Lattice="11.209513607476866 0 0 0 11.209513607476866 0 0 0 11.209513607476866" Properties=species:S:1:pos:R:3 Step=24
POX 3.249807 1.064140 -0.515347
WTR 3.081950 3.995325 2.173403
POX 0.288766 1.967165 7.631563
WTR -0.092414 3.903970 3.697990
POX 1.467920 7.201414 2.446189
WTR 0.715307 4.642487 10.325703
WTR 3.196798 7.876765 -2.193219
POX 2.011311 9.672109 5.751877
WTR 4.935343 6.278620 6.188116
WTR 9.291095 -1.395511 5.852907
POX 6.781321 -3.225058 8.953102
WTR 5.761448 1.787834 13.462714
WTR 6.075334 5.635254 2.966981
WTR 3.699615 2.272878 5.599415
WTR 5.471974 4.254239 10.157611
WTR 5.833978 9.822680 4.976842
WTR 8.766216 6.246318 5.433967
WTR 8.248285 4.277011 8.275230
WTR 9.664561 1.756362 0.662253
POX 7.663815 2.135724 5.434644
WTR 7.630963 0.964986 9.195402
WTR 8.728625 5.934699 0.623052
WTR 7.823592 10.000740 1.805949
WTR 12.431130 5.839739 7.124280
WTR 4.923602 8.885572 0.986010
WTR 11.728645 11.878721 3.365293
POX 10.683652 9.057626 10.361607
27
Lattice="11.209513607476866 0 0 0 11.209513607476866 0 0 0 11.209513607476866" Properties=species:S:1:pos:R:3 Step=25
POX 3.194640 1.058944 -0.751607
WTR 3.266001 4.199549 1.882873
POX 0.332996 1.636898 7.397452
WTR -0.358395 3.616808 3.367408
POX 1.351647 7.269423 2.657702
WTR 1.050297 4.950332 10.933999
WTR 2.410633 7.999052 -2.069632
POX 1.998611 9.552429 5.681137
WTR 4.778522 6.071471 5.656627
WTR 9.493164 -1.473923 6.236746
POX 6.961025 -3.339739 8.972459
WTR 5.627015 1.802416 13.387885
WTR 6.501321 5.541017 2.812325
WTR 3.815162 2.085543 5.644493
WTR 5.274783 4.231815 10.228275
WTR 6.031318 9.800332 5.790258
WTR 9.169866 5.500497 4.967454
WTR 8.622042 4.534395 8.526586
WTR 9.430735 1.884504 0.997658
POX 7.645397 2.138364 5.350231
WTR 7.256912 0.126067 9.321664
WTR 9.084606 6.607179 0.949773
WTR 8.238184 10.106247 1.687512
WTR 12.777339 5.653207 6.342559
WTR 4.398699 9.421352 1.393725
WTR 11.480832 11.500838 3.202814
POX 10.661119 9.432485 10.360533
27
Lattice="11.209513607476866 0 0 0 11.209513607476866 0 0 0 11.209513607476866" Properties=species:S:1:pos:R:3 Step=26
POX 3.055544 0.979355 -1.067758
WTR 3.489002 4.164657 2.152693
POX 0.239546 1.521587 7.252525
WTR 0.278259 3.234243 2.958245
POX 1.160869 7.310646 2.666164
WTR 0.955483 5.029272 10.632869
WTR 2.607071 7.996559 -1.797462
POX 2.298839 9.477480 5.936564
WTR 4.889827 5.969315 5.541214
WTR 9.715045 -1.839740 6.626468
POX 7.005501 -3.655047 9.011616
WTR 5.745743 1.419191 13.263912
WTR 6.704115 5.491192 2.315167
WTR 3.806985 1.922724 5.855547
WTR 5.174749 4.421295 9.893905
WTR 5.817109 9.792568 6.239877
WTR 9.150668 6.074446 5.313329
WTR 9.302206 4.526307 8.870851
WTR 8.979701 2.547825 0.289642
POX 7.680059 2.086229 5.332637
WTR 6.767134 0.218192 9.401506
WTR 9.400327 6.938209 1.030982
WTR 8.036489 9.787237 2.312282
WTR 12.565558 5.067374 5.770947
WTR 3.864147 9.635817 1.905165
WTR 11.552917 10.756665 2.848593
POX 10.696540 10.001570 10.271226
27
Lattice="11.209513607476866 0 0 0 11.209513607476866 0 0 0 11.209513607476866" Properties=species:S:1:pos:R:3 Step=27
POX 2.994698 0.944872 -1.301143
WTR 3.714269 4.104584 2.512421
POX -0.008925 1.654257 7.033155
WTR 0.539314 2.702672 2.705385
POX 1.140164 7.077702 2.675191
WTR 1.359307 4.828905 10.137432
WTR 3.443722 7.812917 -1.468511
POX 2.584797 9.297731 6.314811
WTR 5.211568 5.949134 5.673738
WTR 9.807532 -2.007454 6.897643
POX 7.014202 -3.959208 9.104828
WTR 5.933823 1.134172 13.081070
WTR 6.703739 5.399883 1.927459
WTR 3.872585 1.914388 6.092168
WTR 4.906356 4.278383 9.290549
WTR 6.228465 9.923126 6.263768
WTR 8.832325 6.448267 5.493812
WTR 9.660877 4.598924 8.285300
WTR 8.435080 2.747699 -0.097581
POX 7.748455 2.092207 5.334501
WTR 6.509300 0.697162 9.431142
WTR 9.303895 6.965321 0.371648
WTR 7.545754 9.557887 3.270724
WTR 12.421645 4.688319 5.856902
WTR 3.778667 9.692836 2.338074
WTR 11.402652 10.800312 2.553590
POX 10.545627 10.557679 10.277556
27
Lattice="11.209513607476866 0 0 0 11.209513607476866 0 0 0 11.209513607476866" Properties=species:S:1:pos:R:3 Step=28
POX 2.926617 0.885952 -1.386482
WTR 3.800247 3.913988 2.835255
POX 0.012710 1.569213 6.741184
WTR 0.341517 2.802921 2.320225
POX 1.121221 6.692190 2.719484
WTR 1.864013 4.596879 10.043586
WTR 3.796483 7.958794 -0.677710
POX 2.699776 9.041244 6.684267
WTR 5.237336 5.943269 5.787664
WTR 10.228789 -1.868107 7.105951
POX 6.983307 -4.073377 9.007839
WTR 6.045164 1.112233 12.930195
WTR 6.808045 5.525142 1.698956
WTR 3.936036 1.872462 6.108957
WTR 4.752094 3.841383 8.600956
WTR 6.697798 10.053554 6.774085
WTR 8.497881 6.258995 4.757200
WTR 9.543030 4.921897 7.642223
WTR 8.466377 3.111181 0.002787
POX 7.572228 2.271938 5.141928
WTR 6.720068 0.700701 9.085604
WTR 10.054340 7.102953 0.117820
WTR 7.509143 9.001303 3.506665
WTR 12.741794 5.197523 5.923956
WTR 3.818203 9.634997 2.712611
WTR 11.042775 10.378643 2.914551
POX 10.137588 10.961547 10.428200
27
Lattice="11.209513607476866 0 0 0 11.209513607476866 0 0 0 11.209513607476866" Properties=species:S:1:pos:R:3 Step=29
POX 2.842514 0.691278 -1.279061
WTR 3.842510 3.606692 2.947572
POX 0.228000 1.527011 6.449881
WTR 0.062762 2.908710 2.071756
POX 1.208487 6.437190 2.785140
WTR 1.709191 4.592682 10.222919
WTR 3.523877 8.259083 0.132101
POX 2.879677 8.839871 6.994964
WTR 5.063553 6.135079 5.568100
WTR 10.382501 -2.425501 7.081094
POX 6.983432 -4.126786 8.992177
WTR 6.074637 0.969490 12.755396
WTR 6.577142 5.939097 1.348036
WTR 3.708931 1.339855 5.637979
WTR 5.300681 3.855955 8.324956
WTR 6.664926 9.769663 6.500237
WTR 8.935319 5.744004 4.003877
WTR 9.670768 4.838080 7.613887
WTR 8.909821 3.682465 -0.117682
POX 7.343970 2.511162 4.850723
WTR 6.814864 1.145298 9.349628
WTR 10.588032 7.374790 -0.485744
WTR 7.443629 9.086478 2.834342
WTR 13.025650 5.490377 6.426178
WTR 3.691640 9.624063 3.203061
WTR 10.807452 9.934988 3.548898
POX 9.815647 11.203500 10.717927
27
Lattice="11.209513607476866 0 0 0 11.209513607476866 0 0 0 11.209513607476866" Properties=species:S:1:pos:R:3 Step=30
POX 2.743128 0.561659 -1.069045
WTR 3.825403 3.335155 2.681285
POX 0.253601 1.492562 6.208873
WTR 0.045558 2.353171 2.324966
POX 1.462195 6.307522 2.855658
WTR 1.784518 4.466083 10.430236
WTR 3.280701 8.399809 0.304590
POX 3.131427 8.778758 7.418496
WTR 5.408125 6.426789 4.842635
WTR 10.142718 -2.970974 7.036373
POX 6.960030 -3.988539 9.056044
WTR 5.954422 0.934997 12.528286
WTR 5.783248 6.148973 1.106050
WTR 3.834485 0.877970 5.438998
WTR 5.328065 4.123324 8.099117
WTR 6.737745 9.832936 5.814698
WTR 9.432273 5.320454 3.598812
WTR 9.701606 4.446414 7.483497
WTR 9.126512 4.429684 -0.397414
POX 7.193080 2.647193 4.623585
WTR 6.586549 1.162880 9.158195
WTR 11.000076 7.846346 -1.099828
WTR 7.411989 9.304652 2.015268
WTR 13.045689 5.029877 7.048750
WTR 3.384609 9.563112 3.703237