27
Lattice="11.209513607476868 0 0 0 11.209513607476868 0 0 0 11.209513607476868" Properties=species:S:1:pos:R:3 Step=0
WTR 1.856489 1.772866 1.872663
WTR 1.853719 1.854560 5.573332
WTR 1.812502 1.888544 9.300772
WTR 1.826842 5.632418 1.870923
WTR 1.797579 5.608617 5.546702
WTR 1.923006 5.672971 9.342100
WTR 1.929229 9.263315 1.869853
WTR 1.789553 9.324272 5.527228
POX 1.798512 9.361551 9.296511
POX 5.534046 1.817143 1.843457
POX 5.600075 1.809115 5.639369
POX 5.600131 1.866332 9.322543
WTR 5.659925 5.619605 1.801285
POX 5.645119 5.688955 5.602948
WTR 5.677241 5.570083 9.357262
WTR 5.592084 9.331248 1.916589
WTR 5.613746 9.423697 5.616259
POX 5.528697 9.314785 9.407656
WTR 9.323919 1.779141 1.819479
WTR 9.261132 1.964985 5.689955
WTR 9.398557 1.886573 9.396441
WTR 9.276728 5.568350 1.868677
POX 9.314716 5.521506 5.694184
WTR 9.326856 5.606581 9.300312
WTR 9.295126 9.320188 1.929916
WTR 9.382426 9.321335 5.515932
WTR 9.397240 9.302414 9.356521
27
Lattice="11.209513607476868 0 0 0 11.209513607476868 0 0 0 11.209513607476868" Properties=species:S:1:pos:R:3 Step=1
WTR 1.857301 1.705772 1.822920
WTR 1.831034 1.865367 5.576723
WTR 1.805076 1.868205 9.268972
WTR 1.849756 5.685119 1.844816
WTR 1.772591 5.622116 5.553760
WTR 1.936174 5.691529 9.360750
WTR 1.891417 9.267151 1.878193
WTR 1.814751 9.289363 5.507217
POX 1.794601 9.383875 9.360536
POX 5.561511 1.829007 1.877295
POX 5.613582 1.774864 5.720533
POX 5.586137 1.840770 9.348583
WTR 5.663361 5.618958 1.761548
POX 5.667660 5.664142 5.584780
WTR 5.674662 5.519472 9.393761
WTR 5.601558 9.348463 1.882757
WTR 5.635945 9.400761 5.647133
POX 5.552567 9.295685 9.416475
WTR 9.326454 1.770062 1.800365
WTR 9.271608 2.006476 5.659804
WTR 9.410267 1.879218 9.458143
WTR 9.248215 5.591196 1.825581
POX 9.322771 5.538333 5.685849
WTR 9.291184 5.617073 9.224581
WTR 9.283323 9.321501 1.927202
WTR 9.349228 9.346610 5.538205
WTR 9.400397 9.345560 9.353898
27
Lattice="11.209513607476868 0 0 0 11.209513607476868 0 0 0 11.209513607476868" Properties=species:S:1:pos:R:3 Step=2
WTR 1.856288 1.640602 1.771172
WTR 1.811852 1.874394 5.581215
WTR 1.794293 1.847426 9.234735
WTR 1.875214 5.742459 1.821808
WTR 1.746416 5.635934 5.557283
WTR 1.947091 5.705949 9.378461
WTR 1.853379 9.267225 1.890931
WTR 1.839997 9.255784 5.490363
POX 1.785771 9.406455 9.423856
POX 5.589452 1.841721 1.913955
POX 5.627341 1.740513 5.794438
POX 5.573175 1.821421 9.380201
WTR 5.667427 5.619040 1.719982
POX 5.678798 5.641100 5.566472
WTR 5.672606 5.469783 9.433447
WTR 5.612455 9.363927 1.848540
WTR 5.656003 9.378503 5.674888
POX 5.582635 9.268965 9.425761
WTR 9.330573 1.758427 1.774353
WTR 9.287655 2.041782 5.624269
WTR 9.421327 1.871172 9.528716
WTR 9.217663 5.614575 1.778330
POX 9.341428 5.556343 5.677225
WTR 9.253197 5.627167 9.157567
WTR 9.272724 9.324219 1.926254
WTR 9.311676 9.369812 5.561663
WTR 9.401633 9.390342 9.349820
27
Lattice="11.209513607476868 0 0 0 11.209513607476868 0 0 0 11.209513607476868" Properties=species:S:1:pos:R:3 Step=3
WTR 1.853816 1.578184 1.718029
WTR 1.796660 1.881676 5.586611
WTR 1.779991 1.827016 9.198144
WTR 1.902868 5.804031 1.802388
WTR 1.720354 5.649656 5.557208
WTR 1.955725 5.716093 9.394986
WTR 1.815602 9.263425 1.908694
WTR 1.864945 9.224063 5.477366
POX 1.773280 9.428849 9.485535
POX 5.617516 1.855205 1.953577
POX 5.641243 1.706671 5.857103
POX 5.561171 1.808185 9.419662
WTR 5.672072 5.620017 1.677082
POX 5.678575 5.619744 5.548258
WTR 5.671070 5.422449 9.475360
WTR 5.624487 9.377125 1.815258
WTR 5.673652 9.357123 5.698782
POX 5.617524 9.234985 9.435120
WTR 9.336228 1.744009 1.741653
WTR 9.308866 2.070028 5.583869
WTR 9.431461 1.862453 9.607085
WTR 9.185552 5.638364 1.727811
POX 9.370021 5.575523 5.667825
WTR 9.213179 5.636913 9.102123
WTR 9.263403 9.328420 1.927149
WTR 9.270660 9.390613 5.585807
WTR 9.400816 9.436484 9.344186
27
Lattice="11.209513607476868 0 0 0 11.209513607476868 0 0 0 11.209513607476868" Properties=species:S:1:pos:R:3 Step=4
WTR 1.850272 1.519430 1.664264
WTR 1.785827 1.887269 5.592683
WTR 1.762165 1.807862 9.159414
WTR 1.932234 5.869123 1.786997
WTR 1.696115 5.662862 5.553560
WTR 1.962062 5.721964 9.410091
WTR 1.778637 9.255763 1.931938
WTR 1.889233 9.194767 5.468722
POX 1.758573 9.450521 9.544527
POX 5.645278 1.869291 1.995932
POX 5.655222 1.674027 5.905902
POX 5.550009 1.800437 9.467871
WTR 5.677189 5.622021 1.633515
POX 5.668224 5.599979 5.530447
WTR 5.670046 5.379013 9.518425
WTR 5.637302 9.387652 1.784390
WTR 5.688627 9.336828 5.718182
POX 5.655579 9.194804 9.444111
WTR 9.343277 1.726644 1.702906
WTR 9.334528 2.090652 5.539346
WTR 9.440482 1.853107 9.691669
WTR 9.152472 5.662393 1.675075
POX 9.406561 5.595698 5.657206
WTR 9.171565 5.646363 9.060850
WTR 9.255427 9.334142 1.929920
WTR 9.227270 9.408720 5.610028
WTR 9.397901 9.483607 9.336940
27
Lattice="11.209513607476868 0 0 0 11.209513607476868 0 0 0 11.209513607476868" Properties=species:S:1:pos:R:3 Step=5
WTR 1.846032 1.465047 1.610567
WTR 1.779528 1.891274 5.599191
WTR 1.740921 1.790773 9.118773
WTR 1.962823 5.936933 1.775929
WTR 1.675797 5.675196 5.546448
WTR 1.966145 5.723735 9.423645
WTR 1.742932 9.244410 1.960897
WTR 1.912599 9.168350 5.464699
POX 1.743028 9.470964 9.599977
POX 5.672385 1.883798 2.040665
POX 5.669252 1.643185 5.940421
POX 5.539535 1.797087 9.523912
WTR 5.682631 5.625156 1.589984
POX 5.649744 5.581686 5.513328
WTR 5.669509 5.340859 9.561581
WTR 5.650548 9.395299 1.757341
WTR 5.700745 9.317738 5.732706
POX 5.695185 9.149881 9.452317
WTR 9.351479 1.706175 1.659312
WTR 9.363777 2.103598 5.491505
WTR 9.448362 1.843200 9.780464
WTR 9.118971 5.686536 1.621091
POX 9.448250 5.616575 5.645096
WTR 9.128790 5.655573 9.035329
WTR 9.248819 9.341389 1.934558
WTR 9.182591 9.423967 5.633741
WTR 9.392972 9.531424 9.328052
27
Lattice="11.209513607476868 0 0 0 11.209513607476868 0 0 0 11.209513607476868" Properties=species:S:1:pos:R:3 Step=6
WTR 1.841406 1.415277 1.557293
WTR 1.777758 1.893845 5.605914
WTR 1.716351 1.776335 9.076291
WTR 1.994306 6.006857 1.769290
WTR 1.661817 5.686435 5.535996
WTR 1.968078 5.721704 9.435669
WTR 1.708661 9.229688 1.995638
WTR 1.934984 9.145036 5.465380
POX 1.727742 9.489837 9.651493
POX 5.698703 1.898626 2.087540
POX 5.683353 1.614526 5.962436
POX 5.529559 1.796763 9.585450
WTR 5.688238 5.629514 1.547082
POX 5.625252 5.564679 5.497073
WTR 5.669418 5.308979 9.603926
WTR 5.663948 9.400085 1.735215
WTR 5.709932 9.299795 5.742273
POX 5.735091 9.101615 9.459415
WTR 9.360508 1.682306 1.612928
WTR 9.395851 2.109322 5.440956
WTR 9.455276 1.832815 9.870955
WTR 9.085383 5.710821 1.566461
POX 9.492201 5.637859 5.631456
WTR 9.085144 5.664622 9.025690
WTR 9.243538 9.350172 1.941044
WTR 9.137453 9.436361 5.656517
WTR 9.386222 9.579971 9.317485
27
Lattice="11.209513607476868 0 0 0 11.209513607476868 0 0 0 11.209513607476868" Properties=species:S:1:pos:R:3 Step=7
WTR 1.836615 1.369845 1.504328
WTR 1.780422 1.895159 5.612664
WTR 1.688393 1.764851 9.031779
WTR 2.026634 6.078642 1.767046
WTR 1.656836 5.696493 5.522247
WTR 1.967988 5.716195 9.446345
WTR 1.675653 9.212061 2.036167
WTR 1.956567 9.124809 5.470779
POX 1.713447 9.507009 9.699238
POX 5.724378 1.913811 2.136574
POX 5.697619 1.588154 5.975065
POX 5.519850 1.798056 9.649720
WTR 5.693852 5.635231 1.505289
POX 5.596469 5.548693 5.481698
WTR 5.669729 5.283876 9.644714
WTR 5.677357 9.402194 1.718728
WTR 5.716179 9.282757 5.747020
POX 5.774569 9.050976 9.465212
WTR 9.369960 1.654413 1.567595
WTR 9.430277 2.108596 5.387921
WTR 9.461627 1.822117 9.959278
WTR 9.051728 5.735492 1.511254
POX 9.535969 5.659356 5.616456
WTR 9.040712 5.673622 9.030822
WTR 9.239489 9.360553 1.949417
WTR 9.092288 9.446058 5.678140
WTR 9.377901 9.629744 9.305151
27
Lattice="11.209513607476868 0 0 0 11.209513607476868 0 0 0 11.209513607476868" Properties=species:S:1:pos:R:3 Step=8
WTR 1.831788 1.328084 1.451134
WTR 1.787463 1.895385 5.619272
WTR 1.656745 1.756373 8.984778
WTR 2.060078 6.152291 1.769129
WTR 1.663619 5.705382 5.505082
WTR 1.965977 5.707457 9.455974
WTR 1.643413 9.192200 2.082546
WTR 1.977722 9.107501 5.480982
POX 1.700549 9.522537 9.743819
POX 5.749810 1.929552 2.187991
POX 5.712219 1.563936 5.981811
POX 5.510132 1.799694 9.714381
WTR 5.699319 5.642540 1.465124
POX 5.564494 5.533401 5.467081
WTR 5.670388 5.265606 9.683176
WTR 5.690768 9.401882 1.708260
WTR 5.719461 9.266245 5.747165
POX 5.813386 8.998370 9.469637
WTR 9.379316 1.621292 1.530788
WTR 9.466953 2.102264 5.332174
WTR 9.468070 1.811528 10.038306
WTR 9.017719 5.761008 1.455016
POX 9.577751 5.681013 5.600360
WTR 8.995402 5.682719 9.049024
WTR 9.236559 9.372674 1.959819
WTR 9.047141 9.453278 5.698581
WTR 9.368265 9.681697 9.290870
27
Lattice="11.209513607476868 0 0 0 11.209513607476868 0 0 0 11.209513607476868" Properties=species:S:1:pos:R:3 Step=9
WTR 1.826990 1.289217 1.397030
WTR 1.798942 1.894657 5.625531
WTR 1.620922 1.750781 8.934763
WTR 2.095132 6.227553 1.775486
WTR 1.684640 5.713135 5.484238
WTR 1.962092 5.695629 9.464902
WTR 1.611258 9.171230 2.134822
WTR 1.998912 9.092941 5.496220
POX 1.689261 9.536550 9.786001
POX 5.775511 1.946150 2.241912
POX 5.727368 1.541634 5.986008
POX 5.500106 1.800612 9.777731
WTR 5.704448 5.651801 1.427538
POX 5.529930 5.518481 5.453051
WTR 5.671319 5.253864 9.718123
WTR 5.704249 9.399396 1.703974
WTR 5.719646 9.249860 5.742879
POX 5.851578 8.943843 9.472696
WTR 9.387915 1.581035 1.514959
WTR 9.506025 2.091098 5.273255
WTR 9.475463 1.801998 10.096055
WTR 8.982918 5.787950 1.397056
POX 9.616307 5.702849 5.583458
WTR 8.949148 5.692057 9.078579
WTR 9.234645 9.386713 1.972509
WTR 9.001896 9.458221 5.717866
WTR 9.357559 9.737026 9.274401
27
Lattice="11.209513607476868 0 0 0 11.209513607476868 0 0 0 11.209513607476868" Properties=species:S:1:pos:R:3 Step=10
WTR 1.822302 1.252944 1.342003
WTR 1.814893 1.893090 5.631072
WTR 1.580768 1.747858 8.881846
WTR 2.132094 6.302602 1.785952
WTR 1.721070 5.719690 5.459609
WTR 1.956378 5.680913 9.473391
WTR 1.578695 9.151290 2.192391
WTR 2.020376 9.081165 5.516672
POX 1.679813 9.549049 9.826076
POX 5.801720 1.963796 2.297489
POX 5.743118 1.521195 5.990685
POX 5.489584 1.799959 9.837992
WTR 5.708929 5.663395 1.394573
POX 5.493470 5.503811 5.439595
WTR 5.672381 5.248021 9.747322
WTR 5.717767 9.394983 1.705879
WTR 5.716474 9.233434 5.734320
POX 5.888875 8.887892 9.474432
WTR 9.395120 1.531934 1.532392
WTR 9.547341 2.075918 5.211306
WTR 9.484515 1.794873 10.120206
WTR 8.947238 5.816652 1.337308
POX 9.650545 5.724661 5.566196
WTR 8.902542 5.701643 9.117650
WTR 9.233677 9.402640 1.987709
WTR 8.956942 9.460992 5.735788
WTR 9.346116 9.796347 9.255639
27
Lattice="11.209513607476868 0 0 0 11.209513607476868 0 0 0 11.209513607476868" Properties=species:S:1:pos:R:3 Step=11
WTR 1.817860 1.219637 1.287173
WTR 1.835086 1.890821 5.635327
WTR 1.536872 1.747229 8.827231
WTR 2.170837 6.373357 1.799979
WTR 1.771440 5.724916 5.431559
WTR 1.948971 5.663763 9.481565
WTR 1.545566 9.135785 2.253560
WTR 2.041976 9.072401 5.542155
POX 1.672491 9.559845 9.863626
POX 5.828185 1.982416 2.352434
POX 5.759242 1.502823 5.998532
POX 5.478573 1.797154 9.893014
WTR 5.712309 5.677537 1.369312
POX 5.456322 5.489548 5.426937
WTR 5.673326 5.246906 9.767616
WTR 5.731089 9.388961 1.713624
WTR 5.709693 9.217165 5.721815
POX 5.924451 8.831958 9.474938
WTR 9.400821 1.474378 1.582302
WTR 9.590104 2.057833 5.147624
WTR 9.495177 1.790714 10.110700
WTR 8.911226 5.846964 1.276881
POX 9.679522 5.745882 5.549239
WTR 8.857149 5.711258 9.163832
WTR 9.233585 9.419964 2.005449
WTR 8.913477 9.461656 5.751826
WTR 9.334396 9.859084 9.234792
27
Lattice="11.209513607476868 0 0 0 11.209513607476868 0 0 0 11.209513607476868" Properties=species:S:1:pos:R:3 Step=12
WTR 1.813752 1.189471 1.233457
WTR 1.859360 1.887976 5.637680
WTR 1.489631 1.748312 8.771926
WTR 2.211707 6.435718 1.816825
WTR 1.832281 5.728844 5.400380
WTR 1.939986 5.644565 9.489597
WTR 1.511250 9.128492 2.317043
WTR 2.063703 9.066713 5.572536
POX 1.667391 9.568874 9.898507
POX 5.854785 2.002072 2.404539
POX 5.775610 1.486451 6.011879
POX 5.467036 1.791886 9.941763
WTR 5.714122 5.694383 1.354313
POX 5.419437 5.475756 5.415206
WTR 5.673809 5.248697 9.776436
WTR 5.744121 9.381621 1.726526
WTR 5.699063 9.201232 5.705684
POX 5.957863 8.777109 9.474393
WTR 9.405643 1.410408 1.650695
WTR 9.633863 2.037886 5.083197
WTR 9.506830 1.788596 10.080914
WTR 8.875205 5.878939 1.216716
POX 9.703272 5.766120 5.533013
WTR 8.814313 5.720679 9.214985
WTR 9.234249 9.438001 2.025912
WTR 8.872361 9.460345 5.765611
WTR 9.322628 9.924770 9.211921
27
Lattice="11.209513607476868 0 0 0 11.209513607476868 0 0 0 11.209513607476868" Properties=species:S:1:pos:R:3 Step=13
WTR 1.810002 1.162246 1.181051
WTR 1.887939 1.884639 5.637490
WTR 1.438712 1.750437 8.716158
WTR 2.255759 6.487092 1.835905
WTR 1.899399 5.731739 5.365941
WTR 1.929407 5.623409 9.497761
WTR 1.474513 9.132545 2.382607
WTR 2.085876 9.063986 5.608094
POX 1.664439 9.576212 9.931090
POX 5.881784 2.023130 2.452454
POX 5.792353 1.471672 6.032712
POX 5.454788 1.783987 9.984534
WTR 5.713886 5.714025 1.350619
POX 5.383284 5.462264 5.404344
WTR 5.673385 5.251282 9.772716
WTR 5.757015 9.373111 1.743897
WTR 5.684228 9.185653 5.686005
POX 5.989319 8.723574 9.473002
WTR 9.410414 1.341992 1.723721
WTR 9.678951 2.016811 5.018121
WTR 9.518917 1.787263 10.044651
WTR 8.838949 5.913163 1.157197
POX 9.722671 5.785340 5.517567
WTR 8.774772 5.729741 9.269638
WTR 9.235512 9.455944 2.049669
WTR 8.833723 9.457201 5.777024
WTR 9.310660 9.993628 9.186690
27
Lattice="11.209513607476868 0 0 0 11.209513607476868 0 0 0 11.209513607476868" Properties=species:S:1:pos:R:3 Step=14
WTR 1.806631 1.137954 1.130212
WTR 1.921207 1.880870 5.634044
WTR 1.383618 1.752939 8.660094
WTR 2.303872 6.526582 1.856874
WTR 1.967604 5.734080 5.328021
WTR 1.917169 5.600315 9.506302
WTR 1.434334 9.149497 2.450038
WTR 2.108834 9.064054 5.649198
POX 1.663530 9.581881 9.961696
POX 5.909472 2.045960 2.495212
POX 5.809648 1.458068 6.062433
POX 5.441639 1.773376 10.021951
WTR 5.711047 5.736171 1.357583
POX 5.348546 5.448859 5.394309
WTR 5.671489 5.252520 9.757120
WTR 5.769973 9.363514 1.765071
WTR 5.664809 9.170527 5.662735
POX 6.019136 8.671600 9.470949
WTR 9.415756 1.271036 1.792766
WTR 9.725884 1.995297 4.952577
WTR 9.531100 1.786158 10.010417
WTR 8.802178 5.950383 1.099348
POX 9.738689 5.803544 5.502853
WTR 8.739337 5.738151 9.325954
WTR 9.237173 9.472440 2.077461
WTR 8.797572 9.452346 5.785944
WTR 9.298107 10.065635 9.158620
27
Lattice="11.209513607476868 0 0 0 11.209513607476868 0 0 0 11.209513607476868" Properties=species:S:1:pos:R:3 Step=15
WTR 1.803679 1.116925 1.081472
WTR 1.959591 1.876732 5.626636
WTR 1.323891 1.755181 8.603969
WTR 2.356240 6.555381 1.879751
WTR 2.030421 5.736614 5.286410
WTR 1.903210 5.575315 9.515412
WTR 1.390399 9.178710 2.518707
WTR 2.132846 9.066707 5.696143
POX 1.664561 9.585793 9.990457
POX 5.938061 2.070793 2.532327
POX 5.827659 1.445329 6.101610
POX 5.427432 1.760038 10.054683
WTR 5.705012 5.760075 1.373078
POX 5.316459 5.435309 5.385132
WTR 5.667438 5.250300 9.731859
WTR 5.783184 9.352885 1.789394
WTR 5.640499 9.156089 5.635794
POX 6.047599 8.621689 9.468388
WTR 9.422054 1.199801 1.852902
WTR 9.775185 1.974128 4.887204
WTR 9.543212 1.785633 9.982760
WTR 8.764694 5.991438 1.045661
POX 9.752131 5.820692 5.488815
WTR 8.709065 5.745368 9.380838
WTR 9.238950 9.485252 2.110128
WTR 8.763916 9.445898 5.792190
WTR 9.284412 10.140134 9.127158
27
Lattice="11.209513607476868 0 0 0 11.209513607476868 0 0 0 11.209513607476868" Properties=species:S:1:pos:R:3 Step=16
WTR 1.801180 1.099784 1.035493
WTR 2.003615 1.872274 5.614686
WTR 1.259009 1.756587 8.547777
WTR 2.412500 6.576314 1.904931
WTR 2.080210 5.740426 5.240747
WTR 1.887444 5.548395 9.525253
WTR 1.343000 9.217998 2.587812
WTR 2.158159 9.071674 5.749220
POX 1.667425 9.587758 10.017417
POX 5.967776 2.097756 2.564054
POX 5.846603 1.433241 6.149975
POX 5.411993 1.743955 10.083513
WTR 5.695216 5.784754 1.394311
POX 5.288799 5.421303 5.376915
WTR 5.660472 5.242564 9.699815
WTR 5.796851 9.341237 1.816305
WTR 5.611061 9.142675 5.605010
POX 6.075027 8.574429 9.465440
WTR 9.429549 1.131085 1.900950
WTR 9.827533 1.954178 4.823008
WTR 9.555235 1.786889 9.964241
WTR 8.726243 6.037467 1.000615
POX 9.763609 5.836753 5.475365
WTR 8.685089 5.750482 9.429357
WTR 9.240442 9.491053 2.148687
WTR 8.732624 9.437956 5.795549
WTR 9.268828 10.215932 9.091556
27
Lattice="11.209513607476868 0 0 0 11.209513607476868 0 0 0 11.209513607476868" Properties=species:S:1:pos:R:3 Step=17
WTR 1.799169 1.087485 0.993163
WTR 2.053743 1.867554 5.597910
WTR 1.188612 1.756656 8.491250
WTR 2.471889 6.592564 1.932874
WTR 2.108831 5.746877 5.190604
WTR 1.869806 5.519558 9.535942
WTR 1.292884 9.264755 2.656472
WTR 2.184907 9.078623 5.808560
POX 1.672015 9.587480 10.042483
POX 5.998779 2.126792 2.591218
POX 5.866709 1.421712 6.206416
POX 5.395162 1.725120 10.109270
WTR 5.681230 5.809108 1.418596
POX 5.267716 5.406501 5.369867
WTR 5.649882 5.227452 9.663735
WTR 5.811155 9.328577 1.845294
WTR 5.576433 9.130741 5.570214
POX 6.101686 8.530526 9.462199
WTR 9.438359 1.068435 1.934120
WTR 9.883643 1.936488 4.761533
WTR 9.567228 1.791860 9.956719
WTR 8.686587 6.089881 0.970785
POX 9.773505 5.851667 5.462428
WTR 8.668568 5.752102 9.464600
WTR 9.241095 9.485511 2.194240
WTR 8.703474 9.428617 5.795762
WTR 9.250490 10.291123 9.050926
27
Lattice="11.209513607476868 0 0 0 11.209513607476868 0 0 0 11.209513607476868" Properties=species:S:1:pos:R:3 Step=18
WTR 1.797678 1.081307 0.955899
WTR 2.109724 1.862684 5.576656
WTR 1.113367 1.754987 8.434301
WTR 2.532915 6.606673 1.963558
WTR 2.110008 5.757262 5.136138
WTR 1.850452 5.489130 9.547445
WTR 1.241490 9.316290 2.723266
WTR 2.212793 9.087100 5.873460
POX 1.678164 9.584609 10.065226
POX 6.030856 2.157385 2.614711
POX 5.888008 1.410842 6.268583
POX 5.376960 1.703734 10.132618
WTR 5.663019 5.831795 1.443503
POX 5.255112 5.390766 5.364347
WTR 5.635299 5.203842 9.626142
WTR 5.826095 9.315052 1.875594
WTR 5.537155 9.120943 5.531644
POX 6.127506 8.491082 9.458780
WTR 9.448375 1.015886 1.949490
WTR 9.943628 1.922362 4.705264
WTR 9.579161 1.802769 9.961815
WTR 8.645916 6.149560 0.962634
POX 9.781892 5.865204 5.450079
WTR 8.660627 5.748581 9.479811
WTR 9.240248 9.464456 2.247364
WTR 8.676427 9.418076 5.792553
WTR 9.228692 10.362653 9.004762
27
Lattice="11.209513607476868 0 0 0 11.209513607476868 0 0 0 11.209513607476868" Properties=species:S:1:pos:R:3 Step=19
WTR 1.796714 1.082452 0.925465
WTR 2.170060 1.857865 5.552158
WTR 1.035531 1.751369 8.377309
WTR 2.593170 6.620267 1.996138
WTR 2.083333 5.772192 5.078778
WTR 1.829916 5.457944 9.559494
WTR 1.191072 9.369723 2.786110
WTR 2.240884 9.096468 5.941931
POX 1.685581 9.578910 10.084917
POX 6.063243 2.188419 2.635189
POX 5.910191 1.400900 6.332755
POX 5.357718 1.680377 10.154044
WTR 5.641245 5.851251 1.466815
POX 5.251446 5.374406 5.360749
WTR 5.617033 5.172139 9.589401
WTR 5.841392 9.301037 1.906014
WTR 5.494694 9.114049 5.490271
POX 6.151973 8.457445 9.455351
WTR 9.459126 0.976094 1.944987
WTR 10.006482 1.913083 4.657189
WTR 9.590779 1.821072 9.980392
WTR 8.605183 6.215625 0.977389
POX 9.788556 5.876956 5.438585
WTR 8.661843 5.738965 9.473421
WTR 9.237337 9.426538 2.307381
WTR 8.651696 9.406698 5.785776
WTR 9.203248 10.426936 8.953599
27
Lattice="11.209513607476868 0 0 0 11.209513607476868 0 0 0 11.209513607476868" Properties=species:S:1:pos:R:3 Step=20
WTR 1.796205 1.091464 0.902989
WTR 2.232787 1.853296 5.526109
WTR 0.957870 1.745778 8.320380
WTR 2.650340 6.634369 2.029397
WTR 2.035386 5.791406 5.020681
WTR 1.808808 5.426857 9.571772
WTR 1.143669 9.422747 2.843448
WTR 2.268061 9.106086 6.011727
POX 1.693928 9.570384 10.101043
POX 6.095144 2.218729 2.653225
POX 5.932915 1.392084 6.395156
POX 5.337803 1.655708 10.174206
WTR 5.617105 5.866173 1.486881
POX 5.255183 5.357994 5.359276
WTR 5.595944 5.134236 9.555162
WTR 5.856714 9.286933 1.935445
WTR 5.450844 9.110619 5.447246
POX 6.174570 8.430330 9.452073
WTR 9.469961 0.948034 1.920916
WTR 10.070790 1.909251 4.619036
WTR 9.601702 1.846499 10.011922
WTR 8.565655 6.285656 1.009064
POX 9.793163 5.886598 5.428198
WTR 8.671667 5.723755 9.451091
WTR 9.232124 9.374797 2.372728
WTR 8.629315 9.394853 5.775472
WTR 9.174441 10.482165 8.898800
27
Lattice="11.209513607476868 0 0 0 11.209513607476868 0 0 0 11.209513607476868" Properties=species:S:1:pos:R:3 Step=21
WTR 1.795990 1.108135 0.888411
WTR 2.296698 1.849084 5.499906
WTR 0.881866 1.738317 8.262753
WTR 2.703189 6.649830 2.062446
WTR 1.975717 5.814324 4.963560
WTR 1.787419 5.396177 9.584144
WTR 1.100403 9.474386 2.895111
WTR 2.293554 9.115536 6.081719
POX 1.703000 9.559177 10.113638
POX 6.126324 2.247712 2.669476
POX 5.956198 1.384364 6.453395
POX 5.317266 1.630006 10.194163
WTR 5.591901 5.875799 1.502854
POX 5.263834 5.341994 5.359905
WTR 5.572926 5.092523 9.523918
WTR 5.871951 9.272897 1.963390
WTR 5.406805 9.110869 5.403106
POX 6.195191 8.409385 9.449036
WTR 9.480432 0.927595 1.879892
WTR 10.135762 1.910557 4.590279
WTR 9.611607 1.877246 10.054761
WTR 8.528166 6.357329 1.049255
POX 9.795329 5.894062 5.418984
WTR 8.688695 5.704329 9.421055
WTR 9.224654 9.314836 2.442023
WTR 8.608818 9.382685 5.761713
WTR 9.142610 10.529590 8.841776
27
Lattice="11.209513607476868 0 0 0 11.209513607476868 0 0 0 11.209513607476868" Properties=species:S:1:pos:R:3 Step=22
WTR 1.795851 1.131804 0.880882
WTR 2.361466 1.845246 5.474428
WTR 0.807699 1.729133 8.203060
WTR 2.751286 6.667579 2.094801
WTR 1.912901 5.840552 4.908412
WTR 1.765708 5.365706 9.596658
WTR 1.061664 9.524729 2.941878
WTR 2.316931 9.124643 6.151919
POX 1.712750 9.545484 10.123109
POX 6.157037 2.275265 2.684593
POX 5.980404 1.377551 6.506415
POX 5.295833 1.603135 10.215194
WTR 5.566968 5.879659 1.514346
POX 5.275215 5.326655 5.362560
WTR 5.548644 5.049172 9.495370
WTR 5.887209 9.258863 1.989863
WTR 5.363109 9.114804 5.357757
POX 6.214056 8.393646 9.446261
WTR 9.490447 0.910136 1.825656
WTR 10.201264 1.916169 4.568882
WTR 9.620301 1.910946 10.106647
WTR 8.492948 6.429172 1.091655
POX 9.794535 5.899423 5.410898
WTR 8.711394 5.681999 9.389569
WTR 9.215094 9.252171 2.514401
WTR 8.589393 9.370115 5.744504
WTR 9.107962 10.572364 8.783739
27
Lattice="11.209513607476868 0 0 0 11.209513607476868 0 0 0 11.209513607476868" Properties=species:S:1:pos:R:3 Step=23
WTR 1.795547 1.161662 0.879225
WTR 2.427149 1.841761 5.450213
WTR 0.734953 1.718393 8.140031
WTR 2.794382 6.688678 2.126111
WTR 1.853509 5.869987 4.855853
WTR 1.743484 5.335039 9.609442
WTR 1.027558 9.574303 2.984757
WTR 2.337866 9.133382 6.222837
POX 1.723226 9.529528 10.129979
POX 6.187753 2.301477 2.699051
POX 6.006033 1.371385 6.553829
POX 5.273088 1.574769 10.238525
WTR 5.543814 5.877281 1.521044
POX 5.287853 5.312116 5.367218
WTR 5.523563 5.005994 9.468969
WTR 5.902667 9.244672 2.015035
WTR 5.319961 9.122344 5.310859
POX 6.231480 8.382065 9.443734
WTR 9.500160 0.891976 1.762368
WTR 10.267359 1.925147 4.552469
WTR 9.627753 1.945558 10.164715
WTR 8.459791 6.500208 1.132644
POX 9.790058 5.902751 5.403912
WTR 8.738479 5.657686 9.360169
WTR 9.203704 9.191190 2.589286
WTR 8.570120 9.356954 5.723881
WTR 9.070590 10.613925 8.725784
27
Lattice="11.209513607476868 0 0 0 11.209513607476868 0 0 0 11.209513607476868" Properties=species:S:1:pos:R:3 Step=24
WTR 1.794794 1.196656 0.882305
WTR 2.493837 1.838588 5.427622
WTR 0.663153 1.706400 8.072717
WTR 2.832222 6.714309 2.155925
WTR 1.802342 5.902738 4.806437
WTR 1.720531 5.303746 9.622631
WTR 0.998154 9.623705 3.024622
WTR 2.356042 9.141802 6.295051
POX 1.734513 9.511553 10.134764
POX 6.218976 2.326440 2.713133
POX 6.033583 1.365669 6.595529
POX 5.248618 1.544551 10.265141
WTR 5.524094 5.868125 1.522549
POX 5.300866 5.298486 5.373940
WTR 5.498058 4.964401 9.444345
WTR 5.918507 9.230167 2.039016
WTR 5.277448 9.133364 5.262121
POX 6.247756 8.373727 9.441427
WTR 9.509766 0.869936 1.694715
WTR 10.334013 1.936502 4.539578
WTR 9.634122 1.980109 10.224563
WTR 8.428206 6.569859 1.170153
POX 9.781051 5.904048 5.398064
WTR 8.768969 5.632002 9.334587
WTR 9.190933 9.135202 2.666212
WTR 8.550034 9.343001 5.700129
WTR 9.030455 10.657147 8.668762
27
Lattice="11.209513607476868 0 0 0 11.209513607476868 0 0 0 11.209513607476868" Properties=species:S:1:pos:R:3 Step=25
WTR 1.793269 1.235650 0.889131
WTR 2.561506 1.835674 5.406918
WTR 0.592015 1.693466 8.000591
WTR 2.864761 6.745458 2.183246
WTR 1.762548 5.939019 4.760932
WTR 1.696658 5.271441 9.636345
WTR 0.973563 9.673475 3.062085
WTR 2.371179 9.149988 6.368980
POX 1.746697 9.491810 10.137940
POX 6.251174 2.350184 2.726972
POX 6.063472 1.360267 6.631589
POX 5.222072 1.512168 10.295688
WTR 5.509288 5.851674 1.518427
POX 5.313743 5.285892 5.382846
WTR 5.472411 4.925419 9.421240
WTR 5.934891 9.215231 2.061759
WTR 5.235575 9.147696 5.211479
POX 6.263131 8.367886 9.439303
WTR 9.519393 0.841157 1.628362
WTR 10.401116 1.949481 4.529146
WTR 9.639659 2.014913 10.280418
WTR 8.397507 6.637352 1.202998
POX 9.766744 5.903238 5.393444
WTR 8.802119 5.605380 9.313610
WTR 9.177641 9.087071 2.744434
WTR 8.528079 9.328110 5.674109
WTR 8.987461 10.704069 8.613494
27
Lattice="11.209513607476868 0 0 0 11.209513607476868 0 0 0 11.209513607476868" Properties=species:S:1:pos:R:3 Step=26
WTR 1.790619 1.277518 0.898898
WTR 2.629927 1.832956 5.388310
WTR 0.521640 1.679945 7.923479
WTR 2.892608 6.783055 2.206710
WTR 1.735411 5.979014 4.720582
WTR 1.671727 5.237817 9.650670
WTR 0.953978 9.724100 3.097374
WTR 2.383094 9.158030 6.444715
POX 1.759857 9.470553 10.139960
POX 6.284752 2.372661 2.740581
POX 6.095956 1.355102 6.662252
POX 5.193218 1.477412 10.330390
WTR 5.500241 5.827653 1.508342
POX 5.326166 5.274489 5.394079
WTR 5.446825 4.889712 9.399460
WTR 5.951955 9.199815 2.082986
WTR 5.194241 9.165120 5.159246
POX 6.277791 8.363943 9.437321
WTR 9.529094 0.802757 1.570142
WTR 10.468409 1.963636 4.520101
WTR 9.644597 2.051615 10.325419
WTR 8.366874 6.701093 1.229984
POX 9.746708 5.900180 5.390130
WTR 8.837329 5.578185 9.297599
WTR 9.165231 9.049403 2.822460
WTR 8.502991 9.312266 5.647746
WTR 8.941536 10.755833 8.561016
27
Lattice="11.209513607476868 0 0 0 11.209513607476868 0 0 0 11.209513607476868" Properties=species:S:1:pos:R:3 Step=27
WTR 1.786476 1.321091 0.910988
WTR 2.698499 1.830370 5.371989
WTR 0.452853 1.666304 7.841566
WTR 2.917298 6.827665 2.224492
WTR 1.720190 6.022664 4.687310
WTR 1.645717 5.202726 9.665624
WTR 0.939597 9.775710 3.130561
WTR 2.391741 9.165985 6.521715
POX 1.773995 9.448070 10.141250
POX 6.319931 2.393680 2.753877
POX 6.130978 1.350144 6.687856
POX 5.162041 1.440283 10.368948
WTR 5.496797 5.796316 1.492250
POX 5.337881 5.264482 5.407744
WTR 5.421531 4.857662 9.379053
WTR 5.969790 9.183986 2.102107
WTR 5.153288 9.185329 5.106337
POX 6.291850 8.361486 9.435441
WTR 9.538895 0.751867 1.526715
WTR 10.535340 1.978631 4.511759
WTR 9.649109 2.092594 10.352798
WTR 8.335601 6.759157 1.249669
POX 9.721088 5.894721 5.388146
WTR 8.874002 5.550827 9.286764
WTR 9.155729 9.024399 2.897138
WTR 8.473165 9.295735 5.624737
WTR 8.892952 10.812857 8.512393
27
Lattice="11.209513607476868 0 0 0 11.209513607476868 0 0 0 11.209513607476868" Properties=species:S:1:pos:R:3 Step=28
WTR 1.780374 1.365052 0.925000
WTR 2.766166 1.827838 5.358119
WTR 0.387249 1.653283 7.755650
WTR 2.941091 6.879033 2.234434
WTR 1.714539 6.069548 4.663383
WTR 1.618743 5.166207 9.681089
WTR 0.930630 9.828086 3.161447
WTR 2.397353 9.173884 6.598516
POX 1.789003 9.424735 10.142258
POX 6.356687 2.412915 2.766682
POX 6.168015 1.345417 6.708754
POX 5.128829 1.401092 10.410522
WTR 5.497743 5.758659 1.470527
POX 5.348626 5.256111 5.423830
WTR 5.396839 4.829443 9.360323
WTR 5.988420 9.167956 2.118210
WTR 5.112549 9.207893 5.054381
POX 6.305334 8.360215 9.433626
WTR 9.548986 0.687475 1.501240
WTR 10.600923 1.994167 4.503610
WTR 9.653072 2.138905 10.359396
WTR 8.303395 6.809867 1.260780
POX 9.690686 5.886765 5.387419
WTR 8.911431 5.523824 9.281244
WTR 9.151682 9.013265 2.963047
WTR 8.436623 9.279097 5.610840
WTR 8.842623 10.874790 8.468937
27
Lattice="11.209513607476868 0 0 0 11.209513607476868 0 0 0 11.209513607476868" Properties=species:S:1:pos:R:3 Step=29
WTR 1.771900 1.408142 0.940680
WTR 2.831702 1.825251 5.346760
WTR 0.326539 1.641356 7.666950
WTR 2.966302 6.936158 2.234933
WTR 1.715410 6.119101 4.650534
WTR 1.591004 5.128439 9.696904
WTR 0.927207 9.880861 3.189706
WTR 2.400320 9.181692 6.672966
POX 1.804688 9.400940 10.143498
POX 6.394830 2.430010 2.778791
POX 6.206187 1.341169 6.725292
POX 5.094088 1.360357 10.453961
WTR 5.501136 5.716323 1.443890
POX 5.358160 5.249571 5.442221
WTR 5.373069 4.804972 9.343721
WTR 6.007860 9.152004 2.130256
WTR 5.071774 9.232348 5.005460
POX 6.318225 8.359906 9.431837
WTR 9.559824 0.611747 1.491513
WTR 10.663937 2.009992 4.495098
WTR 9.656026 2.188820 10.347519
WTR 8.270461 6.852387 1.262664
POX 9.656745 5.876326 5.387794
WTR 8.948881 5.497729 9.281071
WTR 9.155628 9.015928 3.013558
WTR 8.391309 9.262925 5.612444
WTR 8.792223 10.940469 8.432283
27
Lattice="11.209513607476868 0 0 0 11.209513607476868 0 0 0 11.209513607476868" Properties=species:S:1:pos:R:3 Step=30
WTR 1.760747 1.449419 0.957932
WTR 2.894099 1.822528 5.337941
WTR 0.272242 1.630752 7.576758
WTR 2.994588 6.997638 2.225671
WTR 1.720058 6.171003 4.649170
WTR 1.562660 5.089573 9.712979
WTR 0.929334 9.933799 3.215078
WTR 2.401089 9.189323 6.742643
POX 1.820853 9.376979 10.145594
POX 6.434205 2.444702 2.790055
POX 6.244321 1.337819 6.737713
POX 5.058354 1.318556 10.498164
WTR 5.504835 5.671194 1.413126
POX 5.366290 5.244969 5.462756
WTR 5.350422 4.783879 9.329704
WTR 6.028220 9.136429 2.137270
WTR 5.030534 9.258331 4.961607
POX 6.330536 8.360389 9.430018
WTR 9.572027 0.528804 1.492343
WTR 10.723236 2.025999 4.485383
WTR 9.657478 2.238944 10.322433
WTR 8.237450 6.886835 1.255382
POX 9.620569 5.863508 5.389060
WTR 8.985770 5.473006 9.286158
WTR 9.168991 9.031441 3.044391
WTR 8.335801 9.247343 5.633021
WTR 8.744365 11.007928 8.404675
27
Lattice="11.209513607476868 0 0 0 11.209513607476868 0 0 0 11.209513607476868" Properties=species:S:1:pos:R:3 Step=31
WTR 1.746594 1.488297 0.976858
WTR 2.952600 1.819563 5.331497
WTR 0.225623 1.621501 7.486419