27
Lattice="11.20461838071637 0 0 0 11.20461838071637 0 0 0 11.20461838071637" Properties=species:S:1:pos:R:3 Step=0
POX 1.897762 1.817465 1.918070
POX 1.895972 1.895018 5.570025
WTR 1.852810 1.930582 9.253992
WTR 1.866456 5.628037 1.913655
WTR 1.837344 5.606161 5.542901
WTR 1.965709 5.672130 9.295891
POX 1.974384 9.214817 1.910893
WTR 1.828514 9.278593 5.523677
POX 1.838704 9.313905 9.244424
WTR 5.529535 1.857042 1.883556
POX 5.596729 1.851836 5.630864
WTR 5.597952 1.908151 9.275240
WTR 5.658694 5.617375 1.841869
WTR 5.643075 5.688776 5.600765
WTR 5.676699 5.569135 9.309639
WTR 5.589247 9.284287 1.959585
WTR 5.610987 9.379696 5.613178
WTR 5.525233 9.267176 9.363050
WTR 9.277035 1.817858 1.858388
WTR 9.212887 2.006615 5.690454
WTR 9.353168 1.928542 9.348871
WTR 9.230360 5.563967 1.911838
POX 9.267780 5.516981 5.693678
WTR 9.282741 5.603323 9.258318
WTR 9.246287 9.273385 1.972103
POX 9.339230 9.272780 5.510127
WTR 9.352169 9.254087 9.310549
27
Lattice="11.20461838071637 0 0 0 11.20461838071637 0 0 0 11.20461838071637" Properties=species:S:1:pos:R:3 Step=1
POX 1.901083 1.800964 1.907280
POX 1.882602 1.900762 5.571321
WTR 1.848445 1.912148 9.226877
WTR 1.879804 5.653851 1.898048
WTR 1.812133 5.618806 5.551447
WTR 1.981412 5.694272 9.316116
POX 1.959882 9.216031 1.913297
WTR 1.847373 9.252094 5.507924
POX 1.841236 9.318545 9.262184
WTR 5.552490 1.865081 1.909379
POX 5.602510 1.843279 5.648265
WTR 5.586708 1.883164 9.294042
WTR 5.661765 5.615264 1.808965
WTR 5.667268 5.666312 5.585304
WTR 5.676742 5.539860 9.328105
WTR 5.597088 9.298263 1.930819
WTR 5.629719 9.360403 5.637433
WTR 5.552585 9.244480 9.373857
WTR 9.276661 1.802831 1.828598
WTR 9.218792 2.032914 5.673247
WTR 9.361754 1.923036 9.381892
WTR 9.215957 5.575804 1.887751
POX 9.269719 5.531305 5.684667
WTR 9.272466 5.605815 9.228956
WTR 9.218289 9.273541 1.962394
POX 9.329735 9.281631 5.518333
WTR 9.356159 9.285658 9.308462
27
Lattice="11.20461838071637 0 0 0 11.20461838071637 0 0 0 11.20461838071637" Properties=species:S:1:pos:R:3 Step=2
POX 1.904367 1.784537 1.896224
POX 1.869054 1.906491 5.572830
WTR 1.844106 1.893738 9.199899
WTR 1.893180 5.679369 1.882436
WTR 1.786961 5.631545 5.560017
WTR 1.997120 5.716227 9.336331
POX 1.945321 9.217248 1.915677
WTR 1.866340 9.225590 5.492357
POX 1.843780 9.323240 9.279919
WTR 5.575631 1.873120 1.935165
POX 5.608403 1.834751 5.665642
WTR 5.575467 1.858168 9.313016
WTR 5.664770 5.613170 1.776067
WTR 5.691266 5.643842 5.569836
WTR 5.676781 5.510590 9.346549
WTR 5.605089 9.312242 1.902064
WTR 5.648349 9.340969 5.661676
WTR 5.580044 9.221749 9.384668
WTR 9.276242 1.787815 1.798856
WTR 9.224896 2.058713 5.656029
WTR 9.370305 1.917552 9.414864
WTR 9.201584 5.587659 1.863652
POX 9.271708 5.545669 5.675550
WTR 9.262197 5.608307 9.199932
WTR 9.190301 9.273671 1.952340
POX 9.320241 9.290608 5.526636
WTR 9.360012 9.317227 9.306394
27
Lattice="11.20461838071637 0 0 0 11.20461838071637 0 0 0 11.20461838071637" Properties=species:S:1:pos:R:3 Step=3
POX 1.907624 1.768190 1.884913
POX 1.855344 1.912209 5.574515
WTR 1.839790 1.875350 9.173095
WTR 1.906598 5.704536 1.866812
WTR 1.761830 5.644367 5.568612
WTR 2.012847 5.737981 9.356550
POX 1.930698 9.218473 1.918030
WTR 1.885398 9.199088 5.477033
POX 1.846345 9.328001 9.297624
WTR 5.598948 1.881166 1.960913
POX 5.614388 1.826241 5.683013
WTR 5.564229 1.833142 9.332182
WTR 5.667704 5.611099 1.743161
WTR 5.715047 5.621357 5.554355
WTR 5.676819 5.481311 9.364971
WTR 5.613207 9.326229 1.873304
WTR 5.666865 9.321395 5.685918
WTR 5.607608 9.198967 9.395494
WTR 9.275778 1.772797 1.769161
WTR 9.231192 2.083989 5.638795
WTR 9.378821 1.912080 9.447779
WTR 9.187232 5.599535 1.839530
POX 9.273757 5.560090 5.666301
WTR 9.251924 5.610809 9.171288
WTR 9.162320 9.273782 1.941971
POX 9.310760 9.299725 5.535024
WTR 9.363724 9.348813 9.304359
27
Lattice="11.20461838071637 0 0 0 11.20461838071637 0 0 0 11.20461838071637" Properties=species:S:1:pos:R:3 Step=4
POX 1.910865 1.751930 1.873360
POX 1.841488 1.917920 5.576338
WTR 1.835493 1.856982 9.146511
WTR 1.920071 5.729297 1.851168
WTR 1.736744 5.657255 5.577235
WTR 2.028609 5.759520 9.376785
POX 1.916012 9.219708 1.920352
WTR 1.904535 9.172598 5.462006
POX 1.848938 9.332835 9.315301
WTR 5.622436 1.889221 1.986621
POX 5.620450 1.817735 5.700393
WTR 5.552994 1.808064 9.351558
WTR 5.670564 5.609058 1.710236
WTR 5.738584 5.598847 5.538851
WTR 5.676858 5.452012 9.383368
WTR 5.621400 9.340224 1.844522
WTR 5.685248 9.301676 5.710172
WTR 5.635277 9.176117 9.406343
WTR 9.275266 1.757764 1.739525
WTR 9.237668 2.108717 5.621537
WTR 9.387301 1.906615 9.480622
WTR 9.172896 5.611434 1.815373
POX 9.275874 5.574584 5.656893
WTR 9.241634 5.613329 9.143071
WTR 9.134348 9.273877 1.931311
POX 9.301302 9.308995 5.543490
WTR 9.367291 9.380432 9.302371
27
Lattice="11.20461838071637 0 0 0 11.20461838071637 0 0 0 11.20461838071637" Properties=species:S:1:pos:R:3 Step=5
POX 1.914099 1.735767 1.861574
POX 1.827497 1.923629 5.578257
WTR 1.831211 1.838629 9.120196
WTR 1.933616 5.753594 1.835496
WTR 1.711708 5.670190 5.585888
WTR 2.044421 5.780830 9.397048
POX 1.901255 9.220959 1.922641
WTR 1.923744 9.146129 5.447328
POX 1.851568 9.337752 9.332950
WTR 5.646092 1.897293 2.012290
POX 5.626575 1.809221 5.717798
WTR 5.541758 1.782909 9.371165
WTR 5.673341 5.607054 1.677291
WTR 5.761850 5.576302 5.523314
WTR 5.676903 5.422675 9.401730
WTR 5.629626 9.354235 1.815697
WTR 5.703476 9.281806 5.734456
WTR 5.663056 9.153180 9.417223
WTR 9.274704 1.742697 1.709976
WTR 9.244312 2.132878 5.604243
WTR 9.395750 1.901155 9.513362
WTR 9.158568 5.623363 1.791168
POX 9.278069 5.589171 5.647295
WTR 9.231314 5.615874 9.115332
WTR 9.106388 9.273963 1.920382
POX 9.291879 9.318430 5.552026
WTR 9.370712 9.412105 9.300444
27
Lattice="11.20461838071637 0 0 0 11.20461838071637 0 0 0 11.20461838071637" Properties=species:S:1:pos:R:3 Step=6
POX 1.917334 1.719708 1.849561
POX 1.813381 1.929342 5.580232
WTR 1.826942 1.820287 9.094212
WTR 1.947250 5.777362 1.819787
WTR 1.686733 5.683147 5.594579
WTR 2.060304 5.801896 9.417350
POX 1.886419 9.222232 1.924895
WTR 1.943026 9.119692 5.433048
POX 1.854241 9.342763 9.350572
WTR 5.669917 1.905387 2.037918
POX 5.632753 1.800687 5.735248
WTR 5.530521 1.757652 9.391024
WTR 5.676029 5.605093 1.644334
WTR 5.784813 5.553706 5.507729
WTR 5.676958 5.393283 9.420036
WTR 5.637838 9.368268 1.786811
WTR 5.721519 9.261777 5.758794
WTR 5.690955 9.130136 9.428137
WTR 9.274091 1.727578 1.680561
WTR 9.251107 2.156449 5.586896
WTR 9.404171 1.895698 9.545952
WTR 9.144243 5.635327 1.766897
POX 9.280350 5.603870 5.637476
WTR 9.220947 5.618449 9.088124
WTR 9.078452 9.274045 1.909202
POX 9.282502 9.328045 5.560624
WTR 9.373985 9.443852 9.298593
27
Lattice="11.20461838071637 0 0 0 11.20461838071637 0 0 0 11.20461838071637" Properties=species:S:1:pos:R:3 Step=7
POX 1.920580 1.703763 1.837327
POX 1.799146 1.935066 5.582220
WTR 1.822682 1.801950 9.068624
WTR 1.960996 5.800535 1.804032
WTR 1.661832 5.696095 5.603314
WTR 2.076279 5.822704 9.437702
POX 1.871490 9.223532 1.927114
WTR 1.962388 9.093300 5.419212
POX 1.856962 9.347878 9.368169
WTR 5.693915 1.913509 2.063510
POX 5.638978 1.792118 5.752762
WTR 5.519278 1.732265 9.411159
WTR 5.678618 5.603186 1.611383
WTR 5.807440 5.531044 5.492080
WTR 5.677030 5.363813 9.438257
WTR 5.645987 9.382333 1.757842
WTR 5.739341 9.241578 5.783213
WTR 5.718988 9.106962 9.439090
WTR 9.273422 1.712381 1.651359
WTR 9.258035 2.179414 5.569479
WTR 9.412574 1.890248 9.578315
WTR 9.129913 5.647333 1.742541
POX 9.282729 5.618702 5.627404
WTR 9.210515 5.621058 9.061502
WTR 9.050553 9.274126 1.897784
POX 9.273183 9.337856 5.569280
WTR 9.377111 9.475695 9.296834
27
Lattice="11.20461838071637 0 0 0 11.20461838071637 0 0 0 11.20461838071637" Properties=species:S:1:pos:R:3 Step=8
POX 1.923843 1.687943 1.824873
POX 1.784795 1.940808 5.584176
WTR 1.818426 1.783610 9.043510
WTR 1.974880 5.823041 1.788224
WTR 1.637020 5.708999 5.612106
WTR 2.092371 5.843239 9.458111
POX 1.856454 9.224864 1.929300
WTR 1.981845 9.066971 5.405862
POX 1.859737 9.353109 9.385746
WTR 5.718095 1.921668 2.089069
POX 5.645245 1.783503 5.770362
WTR 5.508024 1.706715 9.431593
WTR 5.681096 5.601342 1.578468
WTR 5.829695 5.508294 5.476347
WTR 5.677122 5.334239 9.456346
WTR 5.654019 9.396446 1.728769
WTR 5.756901 9.221192 5.807746
WTR 5.747174 9.083631 9.450079
WTR 9.272693 1.697077 1.622480
WTR 9.265077 2.201759 5.551969
WTR 9.420970 1.884813 9.610345
WTR 9.115573 5.659389 1.718080
POX 9.285212 5.633690 5.617042
WTR 9.199997 5.623706 9.035524
WTR 9.022711 9.274211 1.886135
POX 9.263935 9.347879 5.577990
WTR 9.380091 9.507658 9.295181
27
Lattice="11.20461838071637 0 0 0 11.20461838071637 0 0 0 11.20461838071637" Properties=species:S:1:pos:R:3 Step=9
POX 1.927133 1.672260 1.812195
POX 1.770327 1.946578 5.586054
WTR 1.814172 1.765257 9.018953
WTR 1.988930 5.844804 1.772355
WTR 1.612321 5.721817 5.620969
WTR 2.108608 5.863489 9.478584
POX 1.841289 9.226233 1.931459
WTR 2.001419 9.040720 5.393036
POX 1.862572 9.358468 9.403308
WTR 5.742471 1.929874 2.114603
POX 5.651552 1.774824 5.788072
WTR 5.496751 1.680968 9.452355
WTR 5.683452 5.599573 1.545638
WTR 5.851539 5.485431 5.460508
WTR 5.677243 5.304525 9.474240
WTR 5.661873 9.410624 1.699571
WTR 5.774150 9.200596 5.832430
WTR 5.775536 9.060111 9.461101
WTR 9.271896 1.681631 1.594082
WTR 9.272210 2.223472 5.534341
WTR 9.429376 1.879406 9.641888
WTR 9.101213 5.671505 1.693487
POX 9.287807 5.648860 5.606353
WTR 9.189369 5.626396 9.010244
WTR 8.994951 9.274305 1.874262
POX 9.254772 9.358134 5.586753
WTR 9.382929 9.539767 9.293650
27
Lattice="11.20461838071637 0 0 0 11.20461838071637 0 0 0 11.20461838071637" Properties=species:S:1:pos:R:3 Step=10
POX 1.930456 1.656726 1.799288
POX 1.755740 1.952388 5.587805
WTR 1.809913 1.746879 8.995047
WTR 2.003180 5.865749 1.756418
WTR 1.587760 5.734501 5.629921
WTR 2.125022 5.883440 9.499126
POX 1.825971 9.227644 1.933597
WTR 2.021142 9.014571 5.380767
POX 1.865470 9.363970 9.420862
WTR 5.767060 1.938137 2.140123
POX 5.657903 1.766067 5.805918
WTR 5.485453 1.654985 9.473476
WTR 5.685670 5.597897 1.512962
WTR 5.872933 5.462423 5.444536
WTR 5.677398 5.274630 9.491853
WTR 5.669480 9.424892 1.670227
WTR 5.791033 9.179765 5.857307
WTR 5.804105 9.036366 9.472147
WTR 9.271019 1.665998 1.566377
WTR 9.279409 2.244549 5.516567
WTR 9.437816 1.874052 9.672737
WTR 9.086828 5.683695 1.668732
POX 9.290520 5.664236 5.595297
WTR 9.178603 5.629131 8.985717
WTR 8.967307 9.274409 1.862164
POX 9.245709 9.368643 5.595570
WTR 9.385629 9.572047 9.292257
27
Lattice="11.20461838071637 0 0 0 11.20461838071637 0 0 0 11.20461838071637" Properties=species:S:1:pos:R:3 Step=11
POX 1.933822 1.641355 1.786142
POX 1.741028 1.958249 5.589377
WTR 1.805647 1.728463 8.971893
WTR 2.017668 5.885794 1.740412
WTR 1.563371 5.746996 5.638986
WTR 2.141651 5.903077 9.519737
POX 1.810471 9.229099 1.935726
WTR 2.041051 8.988547 5.369084
POX 1.868438 9.369628 9.438414
WTR 5.791888 1.946470 2.165645
POX 5.664299 1.757214 5.823929
WTR 5.474117 1.628722 9.494989
WTR 5.687735 5.596335 1.480531
WTR 5.893838 5.439234 5.428401
WTR 5.677594 5.244502 9.509071
WTR 5.676762 9.439280 1.640718
WTR 5.807488 9.158666 5.882425
WTR 5.832917 9.012354 9.483206
WTR 9.270044 1.650125 1.539647
WTR 9.286647 2.264988 5.498616
WTR 9.446319 1.868782 9.702616
WTR 9.072408 5.695970 1.643781
POX 9.293356 5.679850 5.583833
WTR 9.167670 5.631913 8.961997
WTR 8.939819 9.274527 1.849840
POX 9.236760 9.379431 5.604441
WTR 9.388195 9.604528 9.291018
27
Lattice="11.20461838071637 0 0 0 11.20461838071637 0 0 0 11.20461838071637" Properties=species:S:1:pos:R:3 Step=12
POX 1.937240 1.626163 1.772742
POX 1.726182 1.964176 5.590719
WTR 1.801369 1.709991 8.949602
WTR 2.032438 5.904861 1.724336
WTR 1.539196 5.759240 5.648191
WTR 2.158535 5.922388 9.540413
POX 1.794754 9.230597 1.937861
WTR 2.061197 8.962679 5.358010
POX 1.871480 9.375458 9.455973
WTR 5.816981 1.954889 2.191188
POX 5.670748 1.748246 5.842139
WTR 5.462733 1.602131 9.516931
WTR 5.689630 5.594916 1.448471
WTR 5.914212 5.415822 5.412071
WTR 5.677838 5.214078 9.525750
WTR 5.683628 9.453824 1.611027
WTR 5.823448 9.137258 5.907835
WTR 5.862014 8.988025 9.494258
WTR 9.268947 1.633944 1.514254
WTR 9.293894 2.284793 5.480454
WTR 9.454926 1.863643 9.731171
WTR 9.057946 5.708347 1.618597
POX 9.296314 5.695732 5.571916
WTR 9.156535 5.634746 8.939129
WTR 8.912536 9.274657 1.837283
POX 9.227942 9.390523 5.613371
WTR 9.390635 9.637235 9.289948
27
Lattice="11.20461838071637 0 0 0 11.20461838071637 0 0 0 11.20461838071637" Properties=species:S:1:pos:R:3 Step=13
POX 1.940718 1.611167 1.759070
POX 1.711191 1.970184 5.591775
WTR 1.797076 1.691450 8.928293
WTR 2.047535 5.922868 1.708201
WTR 1.515288 5.771161 5.657569
WTR 2.175719 5.941359 9.561142
POX 1.778783 9.232135 1.940022
WTR 2.081635 8.937001 5.347562
POX 1.874601 9.381476 9.473547
WTR 5.842373 1.963408 2.216772
POX 5.677257 1.739145 5.860580
WTR 5.451288 1.575159 9.539343
WTR 5.691334 5.593676 1.416939
WTR 5.934014 5.392140 5.395510
WTR 5.678138 5.183285 9.541705
WTR 5.689973 9.468569 1.581140
WTR 5.838836 9.115498 5.933594
WTR 5.891442 8.963327 9.505278
WTR 9.267695 1.617378 1.490650
WTR 9.301116 2.303972 5.462046
WTR 9.463689 1.858700 9.757958
WTR 9.043434 5.720842 1.593139
POX 9.299391 5.711914 5.559501
WTR 9.145162 5.637631 8.917161
WTR 8.885522 9.274800 1.824485
POX 9.219274 9.401949 5.622363
WTR 9.392955 9.670194 9.289063
27
Lattice="11.20461838071637 0 0 0 11.20461838071637 0 0 0 11.20461838071637" Properties=species:S:1:pos:R:3 Step=14
POX 1.944265 1.596392 1.745106
POX 1.696045 1.976288 5.592489
WTR 1.792765 1.672824 8.908092
WTR 2.063008 5.939735 1.692027
WTR 1.491715 5.782680 5.667155
WTR 2.193247 5.959972 9.581896
POX 1.762518 9.233703 1.942232
WTR 2.102426 8.911559 5.337754
POX 1.877808 9.387696 9.491142
WTR 5.868095 1.972046 2.242418
POX 5.683835 1.729890 5.879285
WTR 5.439768 1.547757 9.562264
WTR 5.692825 5.592663 1.386140
WTR 5.953202 5.368141 5.378681
WTR 5.678500 5.152037 9.556709
WTR 5.695677 9.483562 1.551054
WTR 5.853568 9.093336 5.959757
WTR 5.921250 8.938200 9.516229
WTR 9.266245 1.600334 1.469377
WTR 9.308273 2.322535 5.443355
WTR 9.472667 1.854036 9.782445
WTR 9.028868 5.733472 1.567368
POX 9.302580 5.728429 5.546546
WTR 9.133515 5.640571 8.896131
WTR 8.858854 9.274952 1.811441
POX 9.210775 9.413742 5.631422
WTR 9.395163 9.703422 9.288376
27
Lattice="11.20461838071637 0 0 0 11.20461838071637 0 0 0 11.20461838071637" Properties=species:S:1:pos:R:3 Step=15
POX 1.947892 1.581867 1.730831
POX 1.680736 1.982505 5.592804
WTR 1.788435 1.654107 8.889137
WTR 2.078903 5.955381 1.675851
WTR 1.468565 5.793705 5.676990
WTR 2.211167 5.978203 9.602634
POX 1.745919 9.235289 1.944521
WTR 2.123637 8.886408 5.328594
POX 1.881105 9.394134 9.508757
WTR 5.894175 1.980817 2.268146
POX 5.690490 1.720465 5.898286
WTR 5.428162 1.519876 9.585730
WTR 5.694078 5.591938 1.356326
WTR 5.971728 5.343778 5.361552
WTR 5.678933 5.120244 9.570490
WTR 5.700603 9.498860 1.520777
WTR 5.867553 9.070726 5.986376
WTR 5.951484 8.912586 9.527066
WTR 9.264544 1.582710 1.451052
WTR 9.315319 2.340492 5.424349
WTR 9.481932 1.849759 9.804022
WTR 9.014247 5.746250 1.541247
POX 9.305863 5.745305 5.533009
WTR 9.121557 5.643569 8.876080
WTR 8.832631 9.275106 1.798145
POX 9.202470 9.425930 5.640551
WTR 9.397266 9.736919 9.287902
27
Lattice="11.20461838071637 0 0 0 11.20461838071637 0 0 0 11.20461838071637" Properties=species:S:1:pos:R:3 Step=16
POX 1.951606 1.567633 1.716229
POX 1.665263 1.988848 5.592663
WTR 1.784089 1.635301 8.871570
WTR 2.095262 5.969726 1.659734
WTR 1.445952 5.804133 5.687116
WTR 2.229519 5.996022 9.623284
POX 1.728950 9.236870 1.946922
WTR 2.145328 8.861625 5.320089
POX 1.884495 9.400799 9.526382
WTR 5.920632 1.989737 2.293963
POX 5.697228 1.710855 5.917604
WTR 5.416464 1.491478 9.609768
WTR 5.695066 5.591577 1.327800
WTR 5.989541 5.319011 5.344095
WTR 5.679441 5.087814 9.582726
WTR 5.704591 9.514519 1.490338
WTR 5.880688 9.047626 6.013493
WTR 5.982180 8.886431 9.537727
WTR 9.262534 1.564401 1.436332
WTR 9.322201 2.357849 5.405003
WTR 9.491561 1.845998 9.822043
WTR 8.999580 5.759185 1.514752
POX 9.309218 5.762563 5.518855
WTR 9.109257 5.646625 8.857047
WTR 8.806978 9.275254 1.784598
POX 9.194384 9.438542 5.649748
WTR 9.399271 9.770666 9.287653
27
Lattice="11.20461838071637 0 0 0 11.20461838071637 0 0 0 11.20461838071637" Properties=species:S:1:pos:R:3 Step=17
POX 1.955413 1.553742 1.701291
POX 1.649636 1.995327 5.592013
WTR 1.779732 1.616428 8.855539
WTR 2.112114 5.982691 1.643767
WTR 1.424026 5.813848 5.697575
WTR 2.248334 6.013384 9.643743
POX 1.711585 9.238418 1.949472
WTR 2.167554 8.837303 5.312244
POX 1.887980 9.407695 9.543994
WTR 5.947462 1.998813 2.319861
POX 5.704052 1.701053 5.937250
WTR 5.404674 1.462544 9.634387
WTR 5.695757 5.591669 1.300915
WTR 6.006581 5.293818 5.326294
WTR 5.680032 5.054662 9.593061
WTR 5.707470 9.530592 1.459797
WTR 5.892865 9.024004 6.041131
WTR 6.013359 8.859693 9.548135
WTR 9.260155 1.545309 1.425853
WTR 9.328853 2.374606 5.385302
WTR 9.501629 1.842906 9.835880
WTR 8.984890 5.772278 1.487874
POX 9.312609 5.780211 5.504064
WTR 9.096589 5.649738 8.839071
WTR 8.782046 9.275382 1.770813
POX 9.186552 9.451595 5.659006
WTR 9.401183 9.804603 9.287640
27
Lattice="11.20461838071637 0 0 0 11.20461838071637 0 0 0 11.20461838071637" Properties=species:S:1:pos:R:3 Step=18
POX 1.959318 1.540262 1.686022
POX 1.633881 2.001945 5.590805
WTR 1.775374 1.597532 8.841191
WTR 2.129473 5.994199 1.628079
WTR 1.402966 5.822725 5.708403
WTR 2.267627 6.030232 9.663869
POX 1.693813 9.239893 1.952212
WTR 2.190352 8.813562 5.305062
POX 1.891560 9.414818 9.561551
WTR 5.974641 2.008047 2.345815
POX 5.710960 1.691061 5.957214
WTR 5.392805 1.433082 9.659576
WTR 5.696118 5.592316 1.276056
WTR 6.022782 5.268194 5.308148
WTR 5.680710 5.020724 9.601118
WTR 5.709053 9.547132 1.429246
WTR 5.903967 8.999849 6.069287
WTR 6.045016 8.832346 9.558196
WTR 9.257356 1.525355 1.420143
WTR 9.335196 2.390753 5.365252
WTR 9.512199 1.840647 9.845014
WTR 8.970212 5.785518 1.460631
POX 9.315989 5.798241 5.488628
WTR 9.083541 5.652906 8.822197
WTR 8.758017 9.275471 1.756816
POX 9.179010 9.465101 5.668311
WTR 9.403005 9.838629 9.287870
27
Lattice="11.20461838071637 0 0 0 11.20461838071637 0 0 0 11.20461838071637" Properties=species:S:1:pos:R:3 Step=19
POX 1.963322 1.527273 1.670438
POX 1.618037 2.008700 5.589001
WTR 1.771031 1.578684 8.828659
WTR 2.147332 6.004185 1.612839
WTR 1.382988 5.830632 5.719634
WTR 2.287398 6.046495 9.683474
POX 1.675637 9.241248 1.955183
WTR 2.213742 8.790539 5.298543
POX 1.895231 9.422155 9.578996
WTR 6.002114 2.017433 2.371774
POX 5.717941 1.680889 5.977470
WTR 5.380876 1.403123 9.685298
WTR 5.696115 5.593624 1.253614
WTR 6.038073 5.242162 5.289675
WTR 5.681480 4.985957 9.606534
WTR 5.709148 9.564178 1.398812
WTR 5.913884 8.975173 6.097928
WTR 6.077119 8.804387 9.567801
WTR 9.254105 1.504502 1.419530
WTR 9.341144 2.406272 5.344876
WTR 9.523312 1.839389 9.849121
WTR 8.955600 5.798880 1.433064
POX 9.319302 5.816626 5.472561
WTR 9.070115 5.656121 8.806463
WTR 8.735097 9.275502 1.742649
POX 9.171799 9.479052 5.677638
WTR 9.404739 9.872594 9.288347
27
Lattice="11.20461838071637 0 0 0 11.20461838071637 0 0 0 11.20461838071637" Properties=species:S:1:pos:R:3 Step=20
POX 1.967422 1.514862 1.654568
POX 1.602160 2.015581 5.586574
WTR 1.766720 1.559980 8.818051
WTR 2.165663 6.012599 1.598251
WTR 1.364326 5.837441 5.731298
WTR 2.307632 6.062098 9.702334
POX 1.657074 9.242431 1.958427
WTR 2.237723 8.768380 5.292683
POX 1.898987 9.429681 9.596256
WTR 6.029799 2.026960 2.397675
POX 5.724982 1.670559 5.997972
WTR 5.368918 1.372728 9.711492
WTR 5.695711 5.595698 1.233939
WTR 6.052386 5.215764 5.270907
WTR 5.682345 4.950350 9.608994
WTR 5.707573 9.581767 1.368647
WTR 5.922513 8.950005 6.126995
WTR 6.109618 8.775827 9.576838
WTR 9.250399 1.482753 1.424075
WTR 9.346597 2.421143 5.324213
WTR 9.534979 1.839294 9.848144
WTR 8.941122 5.812330 1.405238
POX 9.322478 5.835323 5.455893
WTR 9.056324 5.659379 8.791902
WTR 8.713496 9.275447 1.728364
POX 9.164960 9.493434 5.686959
WTR 9.406384 9.906303 9.289069
27
Lattice="11.20461838071637 0 0 0 11.20461838071637 0 0 0 11.20461838071637" Properties=species:S:1:pos:R:3 Step=21
POX 1.971614 1.503119 1.638447
POX 1.586312 2.022575 5.583512
WTR 1.762460 1.541535 8.809438
WTR 2.184423 6.019415 1.584549
WTR 1.347224 5.843033 5.743420
WTR 2.328304 6.076965 9.720198
POX 1.638153 9.243382 1.961989
WTR 2.262281 8.747229 5.287473
POX 1.902820 9.437366 9.613251
WTR 6.057602 2.036611 2.423446
POX 5.732067 1.660094 6.018667
WTR 5.356965 1.341969 9.738084
WTR 5.694873 5.598628 1.217301
WTR 6.065662 5.189056 5.251888
WTR 5.683309 4.913919 9.608276
WTR 5.704162 9.599929 1.338915
WTR 5.929773 8.924390 6.156406
WTR 6.142448 8.746692 9.585193
WTR 9.246270 1.460162 1.433555
WTR 9.351452 2.435346 5.303312
WTR 9.547177 1.840502 9.842311
WTR 8.926852 5.825828 1.377231
POX 9.325443 5.854276 5.438666
WTR 9.042193 5.662670 8.778532
WTR 8.693416 9.275277 1.714021
POX 9.158528 9.508219 5.696238
WTR 9.407937 9.939530 9.290029
27
Lattice="11.20461838071637 0 0 0 11.20461838071637 0 0 0 11.20461838071637" Properties=species:S:1:pos:R:3 Step=22
POX 1.975897 1.492124 1.622113
POX 1.570558 2.029664 5.579819
WTR 1.758270 1.523479 8.802839
WTR 2.203561 6.024632 1.571986
WTR 1.331911 5.847308 5.756027
WTR 2.349386 6.091031 9.736798
POX 1.618905 9.244041 1.965911
WTR 2.287398 8.727210 5.282892
POX 1.906724 9.445172 9.629905
WTR 6.085418 2.046373 2.449020
POX 5.739177 1.649523 6.039498
WTR 5.345051 1.310923 9.764995
WTR 5.693567 5.602480 1.203847
WTR 6.077860 5.162099 5.232661
WTR 5.684373 4.876704 9.604281
WTR 5.698781 9.618692 1.309771
WTR 5.935614 8.898379 6.186075
WTR 6.175545 8.717004 9.592772
WTR 9.241785 1.436824 1.447502
WTR 9.355605 2.448869 5.282223
WTR 9.559854 1.843137 9.832095
WTR 8.912866 5.839331 1.349121
POX 9.328122 5.873427 5.420931
WTR 9.027748 5.665988 8.766349
WTR 8.675027 9.274958 1.699679
POX 9.152530 9.523378 5.705445
WTR 9.409395 9.972028 9.291217
27
Lattice="11.20461838071637 0 0 0 11.20461838071637 0 0 0 11.20461838071637" Properties=species:S:1:pos:R:3 Step=23
POX 1.980266 1.481944 1.605597
POX 1.554959 2.036829 5.575509
WTR 1.754165 1.505952 8.798226
WTR 2.223018 6.028278 1.560821
WTR 1.318595 5.850189 5.769149
WTR 2.370856 6.104246 9.751863
POX 1.599357 9.244351 1.970235
WTR 2.313050 8.708420 5.278916
POX 1.910694 9.453058 9.646149
WTR 6.113146 2.056235 2.474341
POX 5.746297 1.638870 6.060411
WTR 5.333204 1.279660 9.792151
WTR 5.691764 5.607288 1.193589
WTR 6.088963 5.134949 5.213270
WTR 5.685540 4.838765 9.597041
WTR 5.691331 9.638084 1.281352
WTR 5.940018 8.872020 6.215910
WTR 6.208856 8.686783 9.599501
WTR 9.237040 1.412860 1.465280
WTR 9.358951 2.461713 5.260992
WTR 9.572942 1.847306 9.818133
WTR 8.899236 5.852803 1.320980
POX 9.330441 5.892724 5.402739
WTR 9.013020 5.669330 8.755329
WTR 8.658453 9.274458 1.685392
POX 9.146981 9.538883 5.714550
WTR 9.410752 10.003549 9.292618
27
Lattice="11.20461838071637 0 0 0 11.20461838071637 0 0 0 11.20461838071637" Properties=species:S:1:pos:R:3 Step=24
POX 1.984722 1.472633 1.588926
POX 1.539571 2.044054 5.570611
WTR 1.750157 1.489099 8.795523
WTR 2.242736 6.030401 1.551310
WTR 1.307440 5.851623 5.782817
WTR 2.392698 6.116578 9.765132
POX 1.579531 9.244256 1.975002
WTR 2.339219 8.690925 5.275511
POX 1.914727 9.460984 9.661926
WTR 6.140695 2.066191 2.499372
POX 5.753415 1.628157 6.081364
WTR 5.321446 1.248242 9.819485
WTR 5.689437 5.613052 1.186401
WTR 6.098971 5.107655 5.193749
WTR 5.686813 4.800184 9.586715
WTR 5.681757 9.658131 1.253762
WTR 5.942999 8.845357 6.245828
WTR 6.242342 8.656040 9.605340
WTR 9.232149 1.388407 1.486183
WTR 9.361391 2.473890 5.239655
WTR 9.586358 1.853107 9.801137
WTR 8.886026 5.866211 1.292866
POX 9.332336 5.912117 5.384135
WTR 8.998033 5.672692 8.745425
WTR 8.643766 9.273741 1.671199
POX 9.141884 9.554705 5.723530
WTR 9.412002 10.033847 9.294218
27
Lattice="11.20461838071637 0 0 0 11.20461838071637 0 0 0 11.20461838071637" Properties=species:S:1:pos:R:3 Step=25
POX 1.989264 1.464223 1.572122
POX 1.524441 2.051322 5.565161
WTR 1.746256 1.473072 8.794610
WTR 2.262657 6.031069 1.543691
WTR 1.298569 5.851584 5.797059
WTR 2.414903 6.128010 9.776366
POX 1.559444 9.243710 1.980249
WTR 2.365885 8.674760 5.272641
POX 1.918824 9.468906 9.677193
WTR 6.167976 2.076243 2.524090
POX 5.760523 1.617399 6.102321
WTR 5.309793 1.216717 9.846941
WTR 5.686566 5.619735 1.182049
WTR 6.107905 5.080257 5.174126
WTR 5.688193 4.761058 9.573569
WTR 5.670051 9.678853 1.227075
WTR 5.944601 8.818429 6.275746
WTR 6.275978 8.624781 9.610286
WTR 9.227238 1.363605 1.509512
WTR 9.362829 2.485421 5.218240
WTR 9.600023 1.860632 9.781808
WTR 8.873295 5.879527 1.264824
POX 9.333750 5.931566 5.365164
WTR 8.982810 5.676077 8.736576
WTR 8.630984 9.272773 1.657132
POX 9.137230 9.570824 5.732370
WTR 9.413136 10.062685 9.296001
27
Lattice="11.20461838071637 0 0 0 11.20461838071637 0 0 0 11.20461838071637" Properties=species:S:1:pos:R:3 Step=26
POX 1.993894 1.456733 1.555198
POX 1.509611 2.058615 5.559205
WTR 1.742468 1.458029 8.795337
WTR 2.282721 6.030363 1.538176
WTR 1.292050 5.850066 5.811904
WTR 2.437468 6.138540 9.785356
POX 1.539109 9.242676 1.986009
WTR 2.393026 8.659928 5.270269
POX 1.922988 9.476776 9.691917
WTR 6.194908 2.086397 2.548488
POX 5.767614 1.606612 6.123254
WTR 5.298252 1.185129 9.874465
WTR 5.683138 5.627269 1.180217
WTR 6.115803 5.052790 5.154424
WTR 5.689679 4.721500 9.557938
WTR 5.656250 9.700256 1.201330
WTR 5.944896 8.791275 6.305583
WTR 6.309745 8.593008 9.614373
WTR 9.222436 1.338592 1.534625
WTR 9.363173 2.496337 5.196766
WTR 9.613860 1.869975 9.760785
WTR 8.861091 5.892729 1.236889
POX 9.334645 5.951038 5.345864
WTR 8.967372 5.679487 8.728706
WTR 8.620070 9.271519 1.643207
POX 9.133003 9.587217 5.741057
WTR 9.414145 10.089842 9.297957
27
Lattice="11.20461838071637 0 0 0 11.20461838071637 0 0 0 11.20461838071637" Properties=species:S:1:pos:R:3 Step=27
POX 1.998612 1.450164 1.538167
POX 1.495119 2.065920 5.552790
WTR 1.738796 1.444134 8.797529
WTR 2.302866 6.028371 1.534932
WTR 1.287897 5.847086 5.827370
WTR 2.460391 6.148177 9.791940
POX 1.518536 9.241124 1.992309
WTR 2.420619 8.646412 5.268357
POX 1.927222 9.484549 9.706080
WTR 6.221416 2.096663 2.572565
POX 5.774684 1.595807 6.144142
WTR 5.286828 1.153519 9.902008
WTR 5.679147 5.635567 1.180548
WTR 6.122713 5.025283 5.134661
WTR 5.691273 4.681635 9.540196
WTR 5.640435 9.722326 1.176539
WTR 5.943972 8.763928 6.335260
WTR 6.343632 8.560732 9.617677
WTR 9.217871 1.313495 1.560967
WTR 9.362339 2.506672 5.175251
WTR 9.627800 1.881218 9.738616
WTR 8.849455 5.905798 1.209083
POX 9.334997 5.970503 5.326274
WTR 8.951738 5.682928 8.721734
WTR 8.610944 9.269947 1.629432
POX 9.129175 9.603865 5.749583
WTR 9.415019 10.115120 9.300077
27
Lattice="11.20461838071637 0 0 0 11.20461838071637 0 0 0 11.20461838071637" Properties=species:S:1:pos:R:3 Step=28
POX 2.003420 1.444501 1.521040
POX 1.480996 2.073218 5.545969
WTR 1.735244 1.431555 8.800995
WTR 2.323028 6.025190 1.534073
WTR 1.286068 5.842683 5.843466
WTR 2.483670 6.156937 9.796015
POX 1.497735 9.239041 1.999169
WTR 2.448633 8.634170 5.266868
POX 1.931533 9.492174 9.719671
WTR 6.247423 2.107056 2.596333
POX 5.781730 1.584992 6.164965
WTR 5.275518 1.121930 9.929518
WTR 5.674602 5.644522 1.182673
WTR 6.128693 4.997767 5.114854
WTR 5.692970 4.641593 9.520724
WTR 5.622728 9.745027 1.152691
WTR 5.941934 8.736427 6.364694
WTR 6.377625 8.527967 9.620309
WTR 9.213666 1.288433 1.588077
WTR 9.360251 2.516465 5.153705
WTR 9.641783 1.894434 9.715750
WTR 8.838422 5.918714 1.181424
POX 9.334798 5.989935 5.306431
WTR 8.935928 5.686406 8.715574
WTR 8.603488 9.268029 1.615804
POX 9.125717 9.620749 5.757942
WTR 9.415747 10.138350 9.302360
27
Lattice="11.20461838071637 0 0 0 11.20461838071637 0 0 0 11.20461838071637" Properties=species:S:1:pos:R:3 Step=29
POX 2.008317 1.439717 1.503826
POX 1.467269 2.080495 5.538793
WTR 1.731814 1.420463 8.805537
WTR 2.343142 6.020917 1.535650
WTR 1.286468 5.836912 5.860191
WTR 2.507303 6.164846 9.797537
POX 1.476716 9.236421 2.006601
WTR 2.477032 8.623146 5.265767
POX 1.935928 9.499600 9.732691
WTR 6.272858 2.117589 2.619804
POX 5.788751 1.574177 6.185711
WTR 5.264316 1.090413 9.956936
WTR 5.669522 5.654027 1.186238
WTR 6.133806 4.970269 5.095018
WTR 5.694768 4.601501 9.499885
WTR 5.603283 9.768294 1.129759
WTR 5.938895 8.708809 6.393800
WTR 6.411711 8.494737 9.622411
WTR 9.209938 1.263512 1.615581
WTR 9.356842 2.525757 5.132139
WTR 9.655755 1.909673 9.692538
WTR 8.828018 5.931460 1.153924
POX 9.334059 6.009310 5.286370
WTR 8.919958 5.689927 8.710138
WTR 8.597553 9.265736 1.602314
POX 9.122594 9.637850 5.766133
WTR 9.416320 10.159400 9.304814
27
Lattice="11.20461838071637 0 0 0 11.20461838071637 0 0 0 11.20461838071637" Properties=species:S:1:pos:R:3 Step=30
POX 2.013303 1.435772 1.486533
POX 1.453959 2.087736 5.531315
WTR 1.728510 1.411022 8.810953
WTR 2.363139 6.015656 1.539648
WTR 1.288956 5.829844 5.877529
WTR 2.531286 6.171929 9.796537
POX 1.455489 9.233272 2.014610
WTR 2.505777 8.613267 5.265021
POX 1.940413 9.506778 9.745153
WTR 6.297655 2.128280 2.642999
POX 5.795746 1.563368 6.206368
WTR 5.253212 1.059028 9.984196
WTR 5.663941 5.663971 1.190917
WTR 6.138122 4.942817 5.075166
WTR 5.696660 4.561473 9.478010
WTR 5.582277 9.792033 1.107711
WTR 5.934972 8.681111 6.422494
WTR 6.445875 8.461075 9.624153
WTR 9.206795 1.238829 1.643186
WTR 9.352056 2.534588 5.110563
WTR 9.669671 1.926954 9.669247
WTR 8.818261 5.944019 1.126588
POX 9.332806 6.028608 5.266126
WTR 8.903847 5.693499 8.705338
WTR 8.592973 9.263042 1.588944
POX 9.119767 9.655150 5.774154
WTR 9.416731 10.178191 9.307453
27
Lattice="11.20461838071637 0 0 0 11.20461838071637 0 0 0 11.20461838071637" Properties=species:S:1:pos:R:3 Step=31
POX 2.018375 1.432615 1.469169
POX 1.441082 2.094928 5.523583
WTR 1.725335 1.403386 8.817049
WTR 2.382949 6.009506 1.545986
WTR 1.293358 5.821564 5.895456
WTR 2.555616 6.178218 9.793106
POX 1.434062 9.229613 2.023191
WTR 2.534826 8.604453 5.264600
POX 1.944998 9.513659 9.757076