27
Lattice="11.209513607476866 0 0 0 11.209513607476866 0 0 0 11.209513607476866" Properties=species:S:1:pos:R:3 Step=0
POX 1.856487 1.773225 1.872861
POX 1.853783 1.854513 5.573357
WTR 1.812550 1.888658 9.300933
WTR 1.826727 5.632135 1.871041
WTR 1.797723 5.608560 5.546678
WTR 1.922948 5.672872 9.342011
POX 1.929409 9.263267 1.869833
WTR 1.789460 9.324427 5.527330
POX 1.798547 9.361446 9.296174
WTR 5.533931 1.817088 1.843285
POX 5.600043 1.809288 5.638978
WTR 5.600194 1.866440 9.322432
WTR 5.659899 5.619604 1.801486
WTR 5.645009 5.689073 5.603033
WTR 5.677249 5.570327 9.357073
WTR 5.592054 9.331168 1.916755
WTR 5.613632 9.423778 5.616120
WTR 5.528582 9.314892 9.407610
WTR 9.323891 1.779191 1.819594
WTR 9.261083 1.964765 5.690107
WTR 9.398496 1.886606 9.396122
WTR 9.276876 5.568238 1.868890
POX 9.314658 5.521403 5.694218
WTR 9.327038 5.606533 9.300691
WTR 9.295178 9.320176 1.929893
POX 9.382592 9.321248 5.515829
WTR 9.397198 9.302206 9.356542
27
Lattice="11.209513607476866 0 0 0 11.209513607476866 0 0 0 11.209513607476866" Properties=species:S:1:pos:R:3 Step=1
POX 1.894042 1.656902 1.235366
POX 1.491075 1.952133 5.690680
WTR 1.832262 1.977355 9.062639
WTR 2.010175 5.526714 1.657796
WTR 1.825389 5.739443 5.636835
WTR 2.011308 5.717420 9.434717
POX 1.553125 8.914261 2.280168
WTR 2.149776 9.059914 5.689082
POX 1.834331 9.579935 9.503199
WTR 5.830536 1.973334 2.228502
POX 5.853840 1.542021 6.348996
WTR 5.443157 1.548743 9.914379
WTR 5.586124 5.619471 1.620501
WTR 5.625027 5.424449 5.408802
WTR 5.598646 5.106303 9.488591
WTR 5.670824 9.502844 1.704934
WTR 5.592002 8.941192 5.884478
WTR 5.778355 9.117743 9.430740
WTR 9.281851 1.764259 1.885760
WTR 9.301460 2.044316 5.406402
WTR 9.452215 1.885574 9.742769
WTR 9.158401 5.729264 1.463211
POX 9.353101 5.600445 5.455503
WTR 9.100194 5.745888 9.057119
WTR 9.142251 9.302555 1.749082
POX 9.148430 9.779098 5.735832
WTR 9.226313 9.654285 9.404919
27
Lattice="11.209513607476866 0 0 0 11.209513607476866 0 0 0 11.209513607476866" Properties=species:S:1:pos:R:3 Step=2
POX 1.966066 1.671001 1.003797
POX 1.397364 1.918319 5.376987
WTR 2.061581 2.603380 8.741633
WTR 2.025779 4.928652 1.807705
WTR 2.091038 5.655392 5.646563
WTR 1.874234 5.837358 9.281587
POX 1.222277 8.519167 2.811621
WTR 2.269480 9.365704 6.260439
POX 1.896818 9.732256 9.528787
WTR 5.796231 2.169598 3.029019
POX 5.912648 1.330891 6.888266
WTR 5.309911 1.135369 10.854215
WTR 5.486385 5.816551 1.796184
WTR 5.354185 4.908805 5.253737
WTR 5.497054 4.704570 9.112433
WTR 5.307528 9.639451 1.899230
WTR 5.524210 8.384491 5.831359
WTR 5.787937 8.693591 9.371082
WTR 9.465101 1.819839 2.079290
WTR 8.878111 2.423967 5.196075
WTR 9.404487 2.213221 9.546577
WTR 9.360743 5.671232 1.277298
POX 9.411602 5.809202 5.035287
WTR 9.121776 5.967798 9.134845
WTR 8.941141 9.317369 1.761517
POX 9.134436 10.040923 5.850757
WTR 9.190575 9.756000 9.551539
27
Lattice="11.209513607476866 0 0 0 11.209513607476866 0 0 0 11.209513607476866" Properties=species:S:1:pos:R:3 Step=3
POX 1.964156 1.362726 1.113468
POX 1.371741 1.788310 4.812920
WTR 2.402204 2.881118 8.492714
WTR 1.965393 5.157129 2.155612
WTR 2.018101 5.698635 5.693207
WTR 1.592141 6.429184 9.353367
POX 0.976682 8.346089 3.102266
WTR 2.322888 9.849225 5.990312
POX 1.913384 9.802163 9.874324
WTR 5.501813 1.907710 3.539392
POX 5.688781 1.018442 7.480256
WTR 5.656278 0.874701 11.211714
WTR 5.603394 6.142257 1.722018
WTR 5.383283 4.545289 5.447614
WTR 5.533509 4.440185 8.894902
WTR 4.588218 9.608299 2.442218
WTR 5.857370 8.047209 5.499242
WTR 5.597747 8.197575 9.428145
WTR 9.697676 1.770255 1.787468
WTR 8.591376 2.693576 5.485220
WTR 9.354620 2.578093 9.164480
WTR 9.620035 5.446614 1.148255
POX 9.462755 6.266442 4.745319
WTR 9.180425 6.273165 8.652064
WTR 8.587340 9.363171 2.078228
POX 9.269528 10.094817 5.866995
WTR 9.350566 9.881646 9.700598
27
Lattice="11.209513607476866 0 0 0 11.209513607476866 0 0 0 11.209513607476866" Properties=species:S:1:pos:R:3 Step=4
POX 2.188614 1.458245 1.018426
POX 1.145961 1.911336 4.809335
WTR 2.353666 2.788979 8.386876
WTR 2.236477 4.730076 2.097062
WTR 1.786761 5.831058 6.017914
WTR 1.248478 6.091846 9.569957
POX 0.831161 8.648256 2.947812
WTR 2.808682 10.029676 6.473352
POX 2.007438 9.677965 9.868888
WTR 5.184207 1.158373 3.607212
POX 5.409754 0.456427 8.007667
WTR 6.387331 0.766895 11.493848
WTR 5.901461 6.267166 1.503986
WTR 5.418574 4.594194 5.734276
WTR 5.818195 4.447834 9.379121
WTR 3.984927 9.528654 2.937862
WTR 6.193730 8.035601 5.317750
WTR 5.396640 7.876678 9.517121
WTR 9.383760 1.686063 1.610031
WTR 8.568307 2.745221 5.725521
WTR 9.479478 2.810491 8.888914
WTR 9.755709 5.224566 0.627457
POX 9.195672 6.358295 4.618693
WTR 9.091471 6.706775 8.087842
WTR 7.993740 9.379345 2.370202
POX 9.462433 10.352162 5.969182
WTR 9.357353 10.142192 9.935395
27
Lattice="11.209513607476866 0 0 0 11.209513607476866 0 0 0 11.209513607476866" Properties=species:S:1:pos:R:3 Step=5
POX 2.526196 1.652485 0.696679
POX 0.894568 2.206877 5.128695
WTR 2.235106 2.501128 8.425355
WTR 2.606582 5.178874 2.310027
WTR 1.545080 6.118775 6.144424
WTR 1.183151 5.397611 9.872800
POX 0.424373 8.988061 2.599081
WTR 2.624311 9.634283 6.044163
POX 1.978366 9.334617 9.807889
WTR 5.212540 1.367221 4.181858
POX 5.446866 0.069540 8.388850
WTR 6.516306 0.788642 11.729724
WTR 6.177084 6.125483 1.583159
WTR 5.207942 4.475859 5.775623
WTR 6.105332 4.086548 10.027140
WTR 4.346432 9.169420 2.731933
WTR 6.035743 8.426974 5.728196
WTR 5.319263 7.829956 9.494517
WTR 9.558601 1.766718 1.918314
WTR 8.335320 2.762084 5.454274
WTR 9.800078 2.807924 8.980676
WTR 9.617299 5.256827 0.458426
POX 8.957574 6.049912 4.300303
WTR 8.909871 7.235361 8.191545
WTR 7.704884 9.337096 2.485796
POX 9.599116 10.547817 6.198332
WTR 9.373930 10.291518 10.161255
27
Lattice="11.209513607476866 0 0 0 11.209513607476866 0 0 0 11.209513607476866" Properties=species:S:1:pos:R:3 Step=6
POX 2.801093 1.813156 0.683832
POX 0.877593 2.639851 5.129606
WTR 2.604704 1.980466 8.234453
WTR 2.743212 5.808884 2.725722
WTR 1.176552 6.346827 6.196022
WTR 1.652903 5.221078 10.132666
POX 0.073959 9.321829 2.260084
WTR 2.059220 9.519125 5.294903
POX 1.761578 8.922981 9.751483
WTR 4.935314 1.462165 4.638283
POX 5.624727 -0.016276 8.550518
WTR 6.215631 0.950867 12.261911
WTR 6.125606 5.829280 1.881855
WTR 4.750443 4.771454 6.063541
WTR 6.201014 3.552314 10.112792
WTR 4.081466 8.853547 2.000825
WTR 5.988417 8.545082 6.253899
WTR 5.389030 7.280854 9.633855
WTR 10.265230 1.936797 2.360908
WTR 7.985326 2.495825 5.457882
WTR 9.947177 2.590979 8.938567
WTR 9.344549 5.509646 0.589399
POX 8.920072 5.859257 4.064581
WTR 8.876306 7.372294 8.379400
WTR 7.890853 9.359131 2.654305
POX 9.618006 10.453843 6.466823
WTR 9.500836 10.403385 10.438104
27
Lattice="11.209513607476866 0 0 0 11.209513607476866 0 0 0 11.209513607476866" Properties=species:S:1:pos:R:3 Step=7
POX 2.874378 1.931073 0.877209
POX 1.005148 3.111982 5.162610
WTR 2.728973 1.485565 7.982703
WTR 2.286509 6.032590 3.184448
WTR 0.612888 6.508817 6.558538
WTR 2.134076 4.968597 10.378456
POX -0.023496 9.555245 2.033669
WTR 1.965196 9.901871 5.056158
POX 1.602372 8.644193 9.487064
WTR 4.162971 1.092061 4.788558
POX 5.912897 -0.075091 8.760030
WTR 6.510630 1.029845 13.162416
WTR 5.659505 5.288011 2.077916
WTR 4.333312 5.279109 6.543539
WTR 6.302665 3.349499 9.766145
WTR 3.814032 9.106177 1.173322
WTR 5.943105 8.238822 6.034923
WTR 5.356448 6.699330 9.876062
WTR 10.371721 2.032129 1.865381
WTR 7.816740 2.333894 5.726617
WTR 10.089995 2.529508 8.838085
WTR 9.536616 5.716381 0.157981
POX 9.059499 5.780677 4.185743
WTR 8.995720 6.969330 8.497697
WTR 7.346172 9.327993 3.122638
POX 9.678741 10.316689 6.652897
WTR 9.234939 10.736934 10.463875
27
Lattice="11.209513607476866 0 0 0 11.209513607476866 0 0 0 11.209513607476866" Properties=species:S:1:pos:R:3 Step=8
POX 2.936138 1.862087 1.197404
POX 1.063095 3.408729 5.195402
WTR 2.318182 0.985563 8.272536
WTR 1.574607 6.535917 3.321441
WTR 0.277951 6.631951 6.672386
WTR 2.334533 4.911419 10.366848
POX -0.104519 9.636483 1.950399
WTR 1.882990 9.746608 5.332618
POX 1.508394 8.590415 9.133211
WTR 4.149080 1.135484 4.683810
POX 6.078200 -0.421479 8.932959
WTR 7.031012 1.653595 13.825918
WTR 5.293603 4.543783 2.498863
WTR 3.832698 5.310286 7.014036
WTR 6.585063 3.383069 9.452502
WTR 3.923171 9.651387 0.583362
WTR 5.717827 7.940759 6.120752
WTR 5.438166 6.726487 10.122599
WTR 10.146371 2.485642 1.239100
WTR 7.525223 2.375196 5.964089
WTR 10.459163 2.828592 8.626316
WTR 9.965731 5.798706 0.430966
POX 9.098227 5.768831 4.289107
WTR 8.490605 6.613293 8.216331
WTR 7.047417 8.928560 3.258742
POX 9.773348 10.163980 6.692579
WTR 9.146380 10.935743 10.549514
27
Lattice="11.209513607476866 0 0 0 11.209513607476866 0 0 0 11.209513607476866" Properties=species:S:1:pos:R:3 Step=9
POX 2.881672 1.771713 1.522247
POX 1.138383 3.213945 5.093212
WTR 2.118389 0.875208 8.761906
WTR 1.619236 6.910968 2.935610
WTR 0.254183 6.488164 6.567918
WTR 2.260594 4.981721 10.459028
POX -0.136999 9.757981 2.118764
WTR 2.133731 9.356297 5.421697
POX 1.582979 8.655654 9.195791
WTR 4.592603 1.246671 4.866339
POX 5.893292 -0.810596 8.831919
WTR 7.789446 1.865275 14.101909
WTR 4.876215 4.526815 3.119624
WTR 3.445051 4.846313 7.383048
WTR 6.797649 3.280013 9.503664
WTR 4.148764 9.787638 0.720896
WTR 5.194672 7.846863 6.468612
WTR 5.643881 7.096870 10.802753
WTR 10.283365 2.969699 0.962690
WTR 7.390731 2.479920 6.400051
WTR 10.710237 3.318094 8.398934
WTR 10.290841 6.410161 0.712796
POX 8.700464 5.746139 4.147407
WTR 7.716131 6.307723 8.048347
WTR 7.058543 8.804154 2.537251
POX 9.642643 10.124191 6.570250
WTR 9.495258 11.131976 10.362006
27
Lattice="11.209513607476866 0 0 0 11.209513607476866 0 0 0 11.209513607476866" Properties=species:S:1:pos:R:3 Step=10
POX 2.785478 1.795712 1.629870
POX 1.071940 2.813672 4.860660
WTR 2.271548 1.407811 9.009261
WTR 2.300567 6.395728 2.782999
WTR 0.075544 6.623419 6.637197
WTR 2.260084 5.010220 10.979720
POX -0.203303 10.149949 2.426045
WTR 2.352503 9.664013 5.264093
POX 1.661368 8.565379 9.452705
WTR 4.776303 0.891849 5.249450
POX 5.807519 -0.920814 8.703125
WTR 8.290359 1.616825 14.207739
WTR 4.776119 4.879935 3.677401
WTR 3.714976 4.336869 7.539401
WTR 6.634818 2.993314 10.417845
WTR 3.923426 9.648735 1.429734
WTR 4.823070 7.611607 6.048697
WTR 5.849486 6.700613 11.355760
WTR 10.667378 3.299696 0.860899
WTR 7.666652 2.524611 6.619660
WTR 10.560079 3.708904 8.391577
WTR 10.078102 7.084498 0.355824
POX 8.261699 5.685524 3.977431
WTR 7.689677 6.210284 7.944187
WTR 7.328212 9.037461 2.262792
POX 9.442715 10.126970 6.325393
WTR 9.406210 11.358754 9.750103
27
Lattice="11.209513607476866 0 0 0 11.209513607476866 0 0 0 11.209513607476866" Properties=species:S:1:pos:R:3 Step=11
POX 3.035270 1.816908 1.434457
POX 0.705513 2.514430 4.996455
WTR 2.393873 1.495741 9.076856
WTR 1.882824 6.531308 2.961249
WTR -0.021962 6.800249 6.211937
WTR 2.577119 5.145390 10.876212
POX -0.149154 10.519368 2.550137
WTR 1.956815 10.224909 5.318922
POX 1.809152 8.607493 9.715425
WTR 5.077802 0.612350 5.406590
POX 5.681934 -0.996357 8.698221
WTR 8.316961 1.547888 14.370661
WTR 4.831635 4.105903 4.215731
WTR 4.254552 3.999425 7.631744
WTR 6.323117 2.522644 11.620814
WTR 3.685286 9.242780 2.021694
WTR 4.880088 7.369721 5.681941
WTR 6.002832 5.982112 11.552590
WTR 10.585620 3.601013 0.996029
WTR 7.941833 2.551450 6.744786
WTR 10.467343 3.979105 8.552015
WTR 9.507590 7.554152 -0.168747
POX 8.170679 5.679431 3.799748
WTR 7.710165 6.401049 7.992389
WTR 7.589466 9.548006 2.375695
POX 9.209869 10.065289 6.024513
WTR 9.479052 11.518708 9.732520
27
Lattice="11.209513607476866 0 0 0 11.209513607476866 0 0 0 11.209513607476866" Properties=species:S:1:pos:R:3 Step=12
POX 3.147531 1.764624 1.332536
POX 0.301218 2.480734 5.296954
WTR 2.180789 1.118371 8.792953
WTR 1.105394 6.452765 3.146571
WTR 0.081138 6.917707 6.069851
WTR 2.835132 5.228585 10.419108
POX 0.065950 10.657451 2.135843
WTR 1.858203 10.268259 6.227669
POX 1.902326 8.768212 9.893847
WTR 5.459837 0.192084 5.259504
POX 5.607116 -1.109622 8.868541
WTR 8.157932 2.086476 14.904513
WTR 4.312390 3.158053 4.310874
WTR 4.877495 3.969293 7.906314
WTR 6.799815 1.914185 11.957460
WTR 3.835920 8.957590 2.307669
WTR 4.873795 7.549932 5.499220
WTR 6.173372 5.698855 11.724997
WTR 10.378557 3.894563 1.291837
WTR 8.000082 2.591425 6.964744
WTR 10.772254 4.320537 8.884523
WTR 9.073593 7.986554 -0.523265
POX 8.332824 5.786534 3.622769
WTR 7.537046 6.728103 7.950724
WTR 7.128590 9.576096 2.334149
POX 8.855859 9.933528 5.961180
WTR 9.653884 11.585959 9.934906
27
Lattice="11.209513607476866 0 0 0 11.209513607476866 0 0 0 11.209513607476866" Properties=species:S:1:pos:R:3 Step=13
POX 3.207763 1.751371 1.034463
POX 0.057245 2.601505 5.663663
WTR 2.006595 1.479175 8.750151
WTR 0.823182 6.313281 2.503718
WTR 0.090709 6.958069 6.894662
WTR 2.943534 5.199901 10.233047
POX 0.026197 10.576170 1.816508
WTR 1.780003 9.753088 6.566668
POX 1.820778 8.844032 10.121949
WTR 5.302566 -0.476388 5.080679
POX 5.659486 -1.166179 9.200839
WTR 8.005408 2.296400 15.382196
WTR 3.666375 3.234588 4.718403
WTR 5.321228 3.946532 8.273152
WTR 7.456542 1.376509 11.342510
WTR 3.548057 8.656699 2.270102
WTR 4.688167 7.401223 5.425183
WTR 6.240760 5.492251 11.824410
WTR 10.476803 3.720449 1.246703
WTR 8.162174 2.641986 7.889732
WTR 11.064027 4.758075 9.210157
WTR 9.014086 8.416224 -0.570234
POX 8.424974 6.139351 3.629386
WTR 7.295755 6.784158 7.629318
WTR 7.052227 9.500018 2.093980
POX 8.653602 9.751198 5.946114
WTR 10.003399 11.706280 9.745790
27
Lattice="11.209513607476866 0 0 0 11.209513607476866 0 0 0 11.209513607476866" Properties=species:S:1:pos:R:3 Step=14
POX 3.498530 1.797777 0.805649
POX -0.074334 2.733662 5.941690
WTR 2.382338 2.210140 8.601609
WTR 0.844174 6.387712 2.122529
WTR 0.005756 6.881035 7.058813
WTR 3.125706 5.418029 10.524902
POX -0.354056 10.557439 2.105808
WTR 1.778317 9.641150 6.020339
POX 1.774856 8.706843 10.120204
WTR 4.524717 -0.360590 4.873600
POX 5.706119 -1.196698 9.486087
WTR 7.201878 2.288347 15.343861
WTR 3.322436 3.569447 5.070546
WTR 5.201168 3.734327 8.364158
WTR 7.373005 1.405197 11.463593
WTR 3.331392 8.553822 2.206360
WTR 4.231406 6.655433 5.419126
WTR 6.299319 5.236831 11.930001
WTR 10.472622 2.825689 1.280475
WTR 8.481389 2.693904 8.550357
WTR 10.792659 4.867949 9.754495
WTR 9.130497 8.290372 -0.749487
POX 8.479247 6.495549 3.749120
WTR 7.271264 6.515084 7.561429
WTR 7.092414 9.516324 1.977276
POX 8.752451 9.748215 5.948894
WTR 10.924988 11.362148 8.929541
27
Lattice="11.209513607476866 0 0 0 11.209513607476866 0 0 0 11.209513607476866" Properties=species:S:1:pos:R:3 Step=15
POX 3.768127 1.755856 0.852895
POX -0.441944 2.871308 5.912668
WTR 2.461876 2.438857 8.268111
WTR 0.498628 6.062809 2.145960
WTR -0.084445 6.568701 6.611127
WTR 3.392879 5.505123 11.045438
POX -0.718839 10.355846 2.659623
WTR 1.365291 9.741718 5.379431
POX 1.808712 8.541023 9.953468
WTR 4.367010 0.216577 4.678179
POX 5.710907 -1.285912 9.569288
WTR 6.532656 2.471174 15.394840
WTR 3.179157 3.245916 4.703169
WTR 5.689405 3.559017 8.081674
WTR 7.299033 1.650429 12.093254
WTR 3.721634 8.803587 2.340800
WTR 3.960998 6.649258 5.516772
WTR 6.631263 5.065712 12.234550
WTR 10.668790 2.610844 1.752130
WTR 8.527905 2.627760 8.696635
WTR 10.491354 4.968331 10.531272
WTR 9.151327 8.004848 -0.988196
POX 8.546669 6.519781 3.792475
WTR 7.328091 6.344887 7.621172
WTR 6.828128 9.547374 2.183760
POX 8.784956 10.125426 6.104764
WTR 11.346700 11.099112 8.156421
27
Lattice="11.209513607476866 0 0 0 11.209513607476866 0 0 0 11.209513607476866" Properties=species:S:1:pos:R:3 Step=16
POX 3.774557 1.615861 0.923109
POX -0.909031 3.001608 5.603695
WTR 2.335489 2.689317 8.306376
WTR 0.868569 6.147085 2.668889
WTR 0.138002 6.373653 6.447386
WTR 3.732715 5.297109 11.436773
POX -0.974465 9.990680 2.668024
WTR 1.587789 9.469455 5.324713
POX 1.850856 8.339922 9.846444
WTR 4.484103 0.046643 4.946968
POX 5.751509 -1.340305 9.527294
WTR 6.716338 3.226978 15.667502
WTR 2.574779 3.202172 3.977483
WTR 5.669133 3.403152 7.701454
WTR 7.826934 1.570900 12.432535
WTR 3.412592 8.769088 2.188105
WTR 3.935632 7.148186 5.822986
WTR 6.936001 5.103368 12.272399
WTR 11.163775 2.728653 2.250503
WTR 8.961160 1.904052 9.208983
WTR 10.388002 4.911799 10.620854
WTR 9.042339 8.333081 -0.980901
POX 8.489685 6.448235 3.952754
WTR 7.402177 6.666023 7.531231
WTR 6.817878 9.531927 2.414130
POX 8.306437 10.500429 6.461032
WTR 11.613106 11.322102 8.198195
27
Lattice="11.209513607476866 0 0 0 11.209513607476866 0 0 0 11.209513607476866" Properties=species:S:1:pos:R:3 Step=17
POX 3.749782 1.304862 0.870363
POX -1.306737 2.945799 5.521368
WTR 2.349488 3.546155 8.543089
WTR 1.288260 6.546679 3.157860
WTR 0.503740 6.423516 6.914732
WTR 3.677799 5.275819 11.460112
POX -0.890076 9.793659 2.368740
WTR 1.658391 9.517386 5.689969
POX 1.837692 8.047877 9.750046
WTR 4.774002 -0.112973 5.463637
POX 5.573541 -1.339435 9.626767
WTR 6.425314 3.581872 15.630665
WTR 2.714430 3.603668 4.188775
WTR 5.669408 3.122269 7.771668
WTR 8.058080 1.374994 12.875712
WTR 2.986656 8.926714 1.788931
WTR 4.424264 7.125073 6.290691
WTR 7.225230 5.174694 11.715755
WTR 11.356467 2.173812 1.634764
WTR 9.069153 1.385270 9.689850
WTR 10.519820 4.969028 10.268801
WTR 9.257160 8.829008 -0.766472
POX 8.430977 6.587803 4.168375
WTR 7.400119 6.941628 7.702032
WTR 6.245717 9.362084 2.524444
POX 7.867347 10.768118 6.590527
WTR 11.897180 11.156924 8.436536
27
Lattice="11.209513607476866 0 0 0 11.209513607476866 0 0 0 11.209513607476866" Properties=species:S:1:pos:R:3 Step=18
POX 3.785176 1.279071 0.881572
POX -1.405860 2.889604 5.525749
WTR 2.207360 4.051377 8.663996
WTR 1.068502 6.511509 3.583499
WTR 0.185009 6.050263 6.729345
WTR 3.718450 5.157678 11.743563
POX -0.584379 9.693913 2.340212
WTR 1.197638 9.793664 5.571557
POX 1.827076 7.713581 9.701850
WTR 4.017924 0.243444 5.595256
POX 5.309494 -1.477455 9.833379
WTR 5.776898 3.543830 15.103133
WTR 2.746627 3.688419 4.896396
WTR 6.053380 2.745449 8.292463
WTR 7.500139 1.382349 13.728900
WTR 2.697772 9.287451 1.702805
WTR 4.728128 6.866570 6.538150
WTR 7.482741 5.286148 11.230750
WTR 11.553068 1.905554 0.884632
WTR 8.851929 1.337071 9.901328
WTR 10.564894 5.020347 10.064235
WTR 9.299985 9.009360 -1.167985
POX 8.437295 6.893176 4.311438
WTR 7.806343 6.886201 8.361736
WTR 5.969285 9.055030 2.656420
POX 7.980954 10.826157 6.477451
WTR 12.331867 11.662788 8.674200
27
Lattice="11.209513607476866 0 0 0 11.209513607476866 0 0 0 11.209513607476866" Properties=species:S:1:pos:R:3 Step=19
POX 3.996238 1.712609 1.034427
POX -1.382587 2.940090 5.390004
WTR 2.794693 3.990898 8.726051
WTR 0.978453 6.216366 3.208354
WTR -0.321247 6.154005 6.669379
WTR 3.882458 5.271131 12.408974
POX -0.683744 9.822058 2.281469
WTR 0.369211 9.850121 5.800215
POX 1.737409 7.511735 9.601327
WTR 3.641187 0.679601 5.692003
POX 5.343281 -1.768071 9.807049
WTR 5.676517 4.265868 14.812076
WTR 1.976650 3.535774 5.559927
WTR 6.041572 2.571673 8.615939
WTR 7.473004 0.781429 14.233801
WTR 3.024153 8.856255 1.857258
WTR 4.720461 6.724779 6.567169
WTR 7.200946 5.257541 11.673584
WTR 11.306947 2.110923 0.733574
WTR 8.530023 1.407050 10.245161
WTR 10.453921 4.809582 10.313643
WTR 9.636225 9.491575 -1.375821
POX 8.325802 7.013484 4.487020
WTR 7.940219 6.428575 8.165361
WTR 5.963239 8.827370 2.754171
POX 8.024039 10.511270 6.360950
WTR 12.895309 12.099165 8.909679
27
Lattice="11.209513607476866 0 0 0 11.209513607476866 0 0 0 11.209513607476866" Properties=species:S:1:pos:R:3 Step=20
POX 4.250892 1.940750 1.229765
POX -1.691460 2.812178 5.152380
WTR 3.418799 4.402184 9.294632
WTR 0.533942 5.817069 2.556235
WTR -0.131545 6.498782 6.932492
WTR 3.569221 5.913394 12.440040
POX -0.880978 9.978062 2.099897
WTR 0.275378 9.916828 6.419349
POX 1.711436 7.503086 9.612516
WTR 3.877463 0.478995 5.587147
POX 5.553701 -1.995579 9.738793
WTR 5.674030 4.580290 15.466753
WTR 2.033129 3.642958 5.599140
WTR 5.845412 2.433317 8.232945
WTR 7.399965 0.663650 14.329171
WTR 2.727173 8.985485 1.843087
WTR 4.382781 6.881786 6.483064
WTR 7.110438 5.305184 12.277520
WTR 11.469348 2.226221 1.587358
WTR 8.192597 1.409541 10.801803
WTR 10.345178 4.789459 10.499066
WTR 10.013381 9.682487 -1.612750
POX 8.302730 6.801975 4.486724
WTR 7.514230 5.907290 8.131123
WTR 6.140597 8.957668 2.546324
POX 7.784825 10.285483 6.497729
WTR 13.296366 11.781322 9.114093
27
Lattice="11.209513607476866 0 0 0 11.209513607476866 0 0 0 11.209513607476866" Properties=species:S:1:pos:R:3 Step=21
POX 4.385450 2.066046 1.362418
POX -1.904937 2.722369 5.123011
WTR 3.654763 4.379386 9.572866
WTR -0.246754 5.694246 2.376079
WTR -0.058850 6.118193 6.508039
WTR 3.769200 6.041387 12.698428
POX -1.100504 9.942078 2.055944
WTR 0.772813 10.234081 6.307352
POX 1.809885 7.787010 9.859830
WTR 4.135063 -0.061806 5.248878
POX 5.724882 -2.166832 9.846513
WTR 5.247857 3.895103 16.123851
WTR 2.179628 3.737315 5.593030
WTR 6.203634 1.964672 7.660797
WTR 7.017120 1.138398 14.361106
WTR 2.428615 9.948345 2.058534
WTR 3.820094 7.534249 6.342720
WTR 7.325110 5.311885 12.370639
WTR 11.964727 2.250953 2.464838
WTR 7.882879 1.501705 11.076374
WTR 10.208537 4.698724 10.284373
WTR 9.826391 9.799178 -1.734580
POX 8.421559 6.679974 4.372717
WTR 7.111359 5.479160 8.427729
WTR 6.099417 8.908599 2.159139
POX 7.506000 10.229993 6.594236
WTR 13.631579 11.570139 9.466469
27
Lattice="11.209513607476866 0 0 0 11.209513607476866 0 0 0 11.209513607476866" Properties=species:S:1:pos:R:3 Step=22
POX 4.259807 2.362213 1.262456
POX -1.810305 2.712251 5.464688
WTR 3.687854 4.017043 9.312714
WTR -0.057542 5.725987 1.805450
WTR 0.336571 6.090665 6.887267
WTR 3.824117 6.212596 13.674491
POX -1.560852 9.868409 2.099590
WTR 0.882642 10.691159 5.881908
POX 1.718368 8.074377 10.132138
WTR 4.260277 -0.412987 4.873708
POX 5.855131 -2.388584 10.048350
WTR 5.395417 3.636404 16.315353
WTR 1.916598 3.320000 5.897484
WTR 6.286907 1.975549 7.887454
WTR 7.053332 0.767946 14.620746
WTR 2.591080 10.536379 2.191598
WTR 3.314037 8.037345 6.173367
WTR 7.403911 5.121519 12.152140
WTR 12.293571 2.123432 3.077601
WTR 7.901308 1.616561 10.917939
WTR 10.425911 4.291463 9.562285
WTR 9.518385 9.918614 -1.787164
POX 8.082079 6.742835 4.413885
WTR 6.828669 5.380915 8.521342
WTR 6.081314 8.854553 2.458060
POX 7.547842 9.934772 6.279631
WTR 13.944282 11.704747 9.781356
27
Lattice="11.209513607476866 0 0 0 11.209513607476866 0 0 0 11.209513607476866" Properties=species:S:1:pos:R:3 Step=23
POX 4.308503 2.824690 1.220202
POX -1.702338 2.776058 5.924357
WTR 3.278031 4.321367 8.979993
WTR 0.282755 5.769086 1.389147
WTR 0.096534 6.758604 7.134798
WTR 3.490898 6.211624 14.551697
POX -1.701984 9.730499 2.074799
WTR 0.335660 10.909249 5.734135
POX 1.556617 8.201369 10.377062
WTR 4.280457 0.073612 5.124287
POX 5.949382 -2.548316 10.142667
WTR 5.546454 3.845614 16.082336
WTR 2.073738 2.737734 6.592979
WTR 6.194742 1.627639 8.342181
WTR 7.150538 1.176306 14.357819
WTR 2.228003 10.071004 1.806492
WTR 3.149877 7.779047 6.371738
WTR 7.438543 5.016505 11.972998
WTR 11.857879 2.200024 2.905114
WTR 8.268618 1.632899 11.056121
WTR 10.753513 3.589469 9.100338
WTR 9.647108 9.948924 -1.843549
POX 7.925089 6.208932 4.436589
WTR 6.891367 5.712064 8.224033
WTR 5.689410 8.871475 2.692217
POX 7.714544 9.878720 6.267135
WTR 13.932290 11.742892 9.539441
27
Lattice="11.209513607476866 0 0 0 11.209513607476866 0 0 0 11.209513607476866" Properties=species:S:1:pos:R:3 Step=24
POX 4.278097 3.221775 1.177858
POX -1.774469 2.744949 6.262155
WTR 3.237962 5.353839 9.288618
WTR 0.160872 5.480894 1.468518
WTR -0.772296 7.227334 7.029130
WTR 2.812361 6.047056 14.933453
POX -1.679033 9.446876 2.049554
WTR 0.001541 10.438435 5.604542
POX 1.504022 8.078855 10.236844
WTR 4.094153 0.331646 5.406178
POX 5.968305 -2.566544 10.241865
WTR 5.000495 3.491366 16.343741
WTR 2.057246 2.448593 6.595704
WTR 5.973098 1.317892 8.539253
WTR 7.372624 1.874968 14.251142
WTR 2.133725 10.280180 2.465283
WTR 3.577241 7.830416 6.870847
WTR 7.590067 5.311094 11.756644
WTR 11.381241 2.360356 2.378835
WTR 8.862148 1.570459 11.313347
WTR 11.191044 3.100450 9.645535
WTR 9.868043 10.061999 -1.828144
POX 8.090062 5.857022 4.228086
WTR 7.161732 5.831597 7.792101
WTR 5.371787 8.908516 2.785695
POX 7.786556 9.920227 6.308515
WTR 13.816561 11.583527 9.347279
27
Lattice="11.209513607476866 0 0 0 11.209513607476866 0 0 0 11.209513607476866" Properties=species:S:1:pos:R:3 Step=25
POX 4.161337 3.553705 1.123261
POX -1.914688 2.540530 6.696181
WTR 4.034181 5.257935 9.368663
WTR -0.240163 5.685590 1.498174
WTR -1.161476 7.143172 6.912662
WTR 2.029267 5.996669 15.283783
POX -1.706064 9.091112 2.056390
WTR 0.320630 9.981098 5.420161
POX 1.374243 8.080058 10.234816
WTR 4.334137 -0.333329 5.394060
POX 5.973482 -2.474259 10.352992
WTR 4.660458 3.619785 16.834279
WTR 1.450169 2.990382 6.568113
WTR 5.964561 1.328780 8.995591
WTR 7.532794 2.156903 14.549190
WTR 2.115530 10.669782 2.854858
WTR 4.178970 8.196342 7.183348
WTR 7.759781 5.703943 11.192769
WTR 11.249689 2.068390 2.469439
WTR 8.712657 1.453845 11.217166
WTR 12.075077 3.167499 10.237711
WTR 9.813155 10.332860 -1.909678
POX 8.229608 5.799155 3.780680
WTR 7.158983 5.665681 7.732493
WTR 5.438424 8.775294 2.986399
POX 7.533302 9.894546 6.200392
WTR 13.789892 11.344124 9.566795
27
Lattice="11.209513607476866 0 0 0 11.209513607476866 0 0 0 11.209513607476866" Properties=species:S:1:pos:R:3 Step=26
POX 4.155604 3.760918 1.448162
POX -2.291708 2.298234 7.245224
WTR 4.488818 4.941046 9.038785
WTR -0.170913 5.674378 1.204463
WTR -0.782455 6.642348 7.067822
WTR 1.479839 6.219259 15.747414
POX -1.715627 9.110223 1.975540
WTR 0.531132 9.697853 5.739902
POX 1.246856 7.963741 10.300733
WTR 3.894724 0.124283 5.398939
POX 5.972625 -2.196435 10.545621
WTR 4.795453 3.889047 16.962441
WTR 1.382140 3.565409 6.552039
WTR 5.784843 1.550622 9.229972
WTR 7.273590 1.927130 14.860079
WTR 2.525762 10.787008 2.079140
WTR 4.298677 8.039236 7.262642
WTR 8.017302 5.664773 10.690155
WTR 11.146360 1.954606 3.122187
WTR 8.196116 1.733098 11.427766
WTR 12.663849 3.536485 10.398956
WTR 9.792808 10.352083 -2.322944
POX 8.087754 5.583383 3.570006
WTR 7.264553 5.464861 7.336203
WTR 5.589311 8.219753 2.929501
POX 7.467799 9.786937 6.035461
WTR 13.957198 11.425697 9.746120
27
Lattice="11.209513607476866 0 0 0 11.209513607476866 0 0 0 11.209513607476866" Properties=species:S:1:pos:R:3 Step=27
POX 4.311529 3.949058 1.977568
POX -2.484891 2.164789 7.668785
WTR 4.214465 4.968516 9.293213
WTR -0.028650 5.069047 1.641860
WTR -0.362647 6.266021 7.578768
WTR 1.451017 6.722471 15.489753
POX -1.684892 9.422164 1.910250
WTR 0.655403 9.778938 5.903214
POX 1.375458 7.892746 10.221732
WTR 3.328134 0.883663 5.398026
POX 5.984975 -1.905869 10.674936
WTR 4.832195 4.000873 16.513293
WTR 1.268504 3.488480 6.699051
WTR 5.439150 1.693820 9.000592
WTR 6.837996 1.258928 15.112250
WTR 3.011024 10.602699 1.457477
WTR 3.964049 7.825139 7.130693
WTR 8.185519 5.570314 10.496733
WTR 10.934512 2.004553 3.764745
WTR 8.316512 2.000133 11.915464
WTR 12.364921 3.531772 10.002133
WTR 9.887942 10.139002 -2.154780
POX 7.948402 5.238737 3.445220
WTR 7.573792 5.998318 6.831699
WTR 5.212004 7.768935 2.991527
POX 7.506201 9.564830 5.825573
WTR 13.671981 11.449503 9.482240
27
Lattice="11.209513607476866 0 0 0 11.209513607476866 0 0 0 11.209513607476866" Properties=species:S:1:pos:R:3 Step=28
POX 4.233392 4.038979 2.070225
POX -2.504702 2.167654 7.973158
WTR 4.270389 5.377674 9.761782
WTR 0.324789 4.505901 2.129575
WTR -0.219865 6.072888 7.787154
WTR 1.590429 7.342977 14.925321
POX -1.576745 9.728146 1.916733
WTR 0.437008 9.983150 5.945531
POX 1.734097 7.793656 10.413240
WTR 3.102276 1.068329 5.124009
POX 6.062063 -1.669715 10.665119
WTR 4.923819 4.415550 17.277547
WTR 1.184400 3.279210 6.544791
WTR 5.102338 1.713419 8.871787
WTR 6.264175 0.853733 14.971765
WTR 3.231475 10.582473 1.678602
WTR 3.679403 7.943422 6.859762
WTR 8.205023 5.672804 10.476754
WTR 10.552403 1.748395 4.236349
WTR 8.542028 2.103175 12.123915
WTR 11.669653 3.201881 10.093767
WTR 9.664789 9.798059 -1.685417
POX 8.028027 4.896156 3.172885
WTR 7.326692 6.254714 7.287325
WTR 4.673090 7.587928 3.076142
POX 7.589114 9.309182 5.673737
WTR 12.929667 11.371199 8.689880
27
Lattice="11.209513607476866 0 0 0 11.209513607476866 0 0 0 11.209513607476866" Properties=species:S:1:pos:R:3 Step=29
POX 4.020558 3.900113 1.997832
POX -2.549745 2.155606 8.123426
WTR 4.791039 5.522594 10.117962
WTR 0.730729 4.051500 2.562216
WTR -0.463372 6.283145 7.523453
WTR 1.037162 7.870561 14.455835
POX -1.385718 9.899700 2.047034
WTR -0.202612 9.711016 5.756891
POX 2.049049 7.827023 10.884463
WTR 3.124749 0.793222 4.796346
POX 6.084841 -1.515107 10.583807
WTR 4.616714 4.437334 17.885387
WTR 1.212415 3.555854 6.431254
WTR 4.594394 1.617895 8.953023
WTR 6.096406 0.912320 14.333668
WTR 2.907065 10.972364 1.735968
WTR 3.525189 8.356492 6.699737
WTR 8.369169 5.939688 11.127857
WTR 9.652703 1.364172 4.420512
WTR 8.479211 1.815373 11.863234
WTR 11.347640 2.919096 10.607251
WTR 9.445664 9.402753 -1.800820
POX 8.176994 4.800852 3.178774
WTR 7.409036 6.017907 7.910297
WTR 5.171975 7.662955 3.015060
POX 7.692343 9.201983 5.559028
WTR 12.516204 11.289078 8.453693
27
Lattice="11.209513607476866 0 0 0 11.209513607476866 0 0 0 11.209513607476866" Properties=species:S:1:pos:R:3 Step=30
POX 4.091113 3.683968 1.993357
POX -2.724269 2.111213 8.105623
WTR 5.364470 5.592506 10.286919
WTR 0.255347 3.750414 3.327057
WTR -0.309874 6.635102 7.287734
WTR 1.183084 7.206048 14.576088
POX -1.359892 10.044457 1.912442
WTR 0.111790 9.491424 5.753804
POX 2.224358 7.863246 11.207488
WTR 2.907909 0.626788 5.213677
POX 5.957012 -1.419648 10.534811
WTR 4.319116 4.313908 17.741073
WTR 1.061075 3.624894 6.344509
WTR 4.205799 1.564532 9.158685
WTR 6.249070 0.728416 13.897040
WTR 2.303974 11.471630 1.086976
WTR 3.558117 8.726616 6.712817
WTR 8.990525 6.629620 11.600565
WTR 8.769250 1.497682 4.801936
WTR 8.008365 1.689168 11.395787
WTR 11.782209 2.935150 10.895472
WTR 9.615172 9.091090 -2.127145
POX 8.196768 4.799403 3.635351
WTR 7.559029 6.020625 7.877029