34
Lattice="11.20461838071637 0 0 0 11.20461838071637 0 0 0 11.20461838071637" Properties=species:S:1:pos:R:3 Step=0
WTR 0.558592 2.309752 2.615768
WTR 3.102647 2.265280 4.554937
POX 0.871833 2.182465 7.115080
POX 1.532326 2.271639 10.500601
POX 2.702311 4.790887 1.797193
POX 0.501827 7.196848 2.926429
WTR 1.658149 5.088751 5.399057
WTR 2.550655 5.857644 8.660390
POX 3.986558 7.960801 0.856017
POX 2.971616 10.474107 2.991231
WTR 1.932043 8.420783 5.807569
POX 0.097131 10.503772 0.822994
POX 1.338447 9.750722 8.897436
WTR 4.545996 1.977883 1.206965
WTR 5.941255 1.096369 4.075723
WTR 4.570841 0.572329 9.387656
WTR 6.487257 5.815590 2.293085
POX 4.972018 3.363023 7.253679
POX 4.856596 6.469322 5.755837
WTR 5.298892 4.918462 10.483312
WTR 6.194114 10.374774 1.416017
WTR 4.620154 10.289166 6.274147
WTR 5.552220 8.613073 9.007245
WTR 7.936967 1.895818 1.190675
POX 7.717324 0.665580 7.300011
POX 9.278384 0.715673 4.223239
WTR 9.369908 2.807569 9.616168
WTR 9.817347 4.667630 1.291611
WTR 9.066663 5.557507 4.548885
WTR 10.356103 6.245303 9.527742
WTR 8.815468 7.994965 1.238212
POX 7.318539 8.751196 4.290200
POX 9.555749 8.724198 6.917007
WTR 8.347896 10.246677 10.185102
34
Lattice="11.20461838071637 0 0 0 11.20461838071637 0 0 0 11.20461838071637" Properties=species:S:1:pos:R:3 Step=1
WTR 0.550933 2.333329 2.547644
WTR 3.075786 2.253769 4.493547
POX 0.851080 2.161190 7.107146
POX 1.511573 2.250364 10.492666
POX 2.702251 4.823153 1.765299
POX 0.501767 7.229114 2.894534
WTR 1.665765 5.113378 5.458488
WTR 2.587662 5.807529 8.655874
POX 4.009634 7.956136 0.879996
POX 2.994693 10.469441 3.015210
WTR 1.892400 8.467132 5.835963
POX 0.081679 10.543298 0.821655
POX 1.322995 9.790247 8.896098
WTR 4.506619 1.989245 1.253409
WTR 5.897693 1.056999 4.061967
WTR 4.593334 0.636055 9.355102
WTR 6.507526 5.829462 2.224886
POX 4.939383 3.358922 7.245758
POX 4.823960 6.465221 5.747915
WTR 5.312280 4.859343 10.480301
WTR 6.172032 10.325628 1.431954
WTR 4.660562 10.262812 6.312719
WTR 5.533555 8.623474 8.939132
WTR 7.973812 1.845515 1.184091
POX 7.732068 0.637787 7.291891
POX 9.293129 0.687881 4.215118
WTR 9.369323 2.851494 9.666773
WTR 9.806580 4.628337 1.332721
WTR 9.129765 5.541747 4.561585
WTR 10.395207 6.305915 9.542735
WTR 8.855194 7.954450 1.260688
POX 7.332683 8.751702 4.320352
POX 9.569894 8.724703 6.947158
WTR 8.291737 10.283081 10.190609
34
Lattice="11.20461838071637 0 0 0 11.20461838071637 0 0 0 11.20461838071637" Properties=species:S:1:pos:R:3 Step=2
WTR 0.542104 2.356670 2.480822
WTR 3.048169 2.247164 4.431617
POX 0.830811 2.140107 7.098245
POX 1.491304 2.229281 10.483766
POX 2.702544 4.855306 1.733697
POX 0.502060 7.261267 2.862933
WTR 1.671774 5.138171 5.517648
WTR 2.625000 5.757166 8.651955
POX 4.032262 7.950974 0.903223
POX 3.017321 10.464279 3.038437
WTR 1.852500 8.513406 5.863325
POX 0.065275 10.582788 0.822091
POX 1.306591 9.829738 8.896533
WTR 4.467699 1.999764 1.299401
WTR 5.856470 1.016969 4.048755
WTR 4.616467 0.698900 9.323797
WTR 6.528192 5.842180 2.157244
POX 4.906239 3.354885 7.237473
POX 4.790816 6.461185 5.739630
WTR 5.325818 4.798810 10.477454
WTR 6.154659 10.279639 1.447890
WTR 4.700197 10.236813 6.350369
WTR 5.515259 8.632664 8.870719
WTR 8.010230 1.794011 1.177755
POX 7.746778 0.610395 7.283151
POX 9.307838 0.660489 4.206378
WTR 9.368556 2.895946 9.716701
WTR 9.795430 4.589429 1.373725
WTR 9.193498 5.525900 4.574414
WTR 10.435724 6.367890 9.559181
WTR 8.892344 7.913568 1.280753
POX 7.346904 8.751525 4.350718
POX 9.584114 8.724527 6.977524
WTR 8.235592 10.319168 10.197945
34
Lattice="11.20461838071637 0 0 0 11.20461838071637 0 0 0 11.20461838071637" Properties=species:S:1:pos:R:3 Step=3
WTR 0.531665 2.379880 2.416523
WTR 3.018679 2.247451 4.369903
POX 0.811397 2.119516 7.087343
POX 1.471889 2.208690 10.472863
POX 2.703468 4.886885 1.702596
POX 0.502984 7.292846 2.831831
WTR 1.674981 5.163160 5.576589
WTR 2.662994 5.705969 8.649313
POX 4.053899 7.944663 0.925184
POX 3.038958 10.457969 3.060398
WTR 1.812198 8.559758 5.888832
POX 0.047498 10.622305 0.825051
POX 1.288814 9.869255 8.899493
WTR 4.429081 2.009055 1.344574
WTR 5.819118 0.975743 4.036780
WTR 4.640545 0.760771 9.294507
WTR 6.549918 5.853606 2.089808
POX 4.872337 3.351295 7.228074
POX 4.756914 6.457595 5.730231
WTR 5.339709 4.735610 10.474617
WTR 6.144182 10.238867 1.464637
WTR 4.738509 10.211752 6.385508
WTR 5.497406 8.639661 8.803314
WTR 8.046139 1.740014 1.171920
POX 7.761658 0.583658 7.273365
POX 9.322718 0.633752 4.196593
WTR 9.367383 2.941675 9.765869
WTR 9.783208 4.551584 1.414908
WTR 9.258899 5.509880 4.587657
WTR 10.478610 6.432016 9.577851
WTR 8.925646 7.873042 1.297298
POX 7.361268 8.750107 4.381617
POX 9.598478 8.723108 7.008423
WTR 8.179001 10.354596 10.208375
34
Lattice="11.20461838071637 0 0 0 11.20461838071637 0 0 0 11.20461838071637" Properties=species:S:1:pos:R:3 Step=4
WTR 0.519553 2.402918 2.356499
WTR 2.986308 2.256579 4.309122
POX 0.793321 2.099876 7.073160
POX 1.453814 2.189050 10.458680
POX 2.705368 4.917221 1.672270
POX 0.504884 7.323181 2.801505
WTR 1.673781 5.188195 5.635460
WTR 2.701874 5.653511 8.648926
POX 4.073935 7.936627 0.945371
POX 3.058994 10.449932 3.080585
WTR 1.771439 8.606381 5.911591
POX 0.027773 10.661681 0.831407
POX 1.269089 9.908631 8.905849
WTR 4.390552 2.016885 1.388293
WTR 5.787150 0.933126 4.027032
WTR 4.665892 0.821095 9.268391
WTR 6.573300 5.863409 2.022179
POX 4.837548 3.348674 7.216635
POX 4.722125 6.454974 5.718792
WTR 5.354181 4.668223 10.471624
WTR 6.143188 10.205531 1.483191
WTR 4.774464 10.189198 6.415147
WTR 5.480597 8.642472 8.739494
WTR 8.081601 1.682436 1.166872
POX 7.776985 0.557803 7.262111
POX 9.338045 0.607897 4.185338
WTR 9.365596 2.989552 9.814206
WTR 9.768778 4.515866 1.456602
WTR 9.327148 5.493579 4.601705
WTR 10.524937 6.499104 9.599570
WTR 8.953160 7.833678 1.308907
POX 7.375797 8.746831 4.413347
POX 9.613007 8.719832 7.040154
WTR 8.121423 10.389201 10.222754
34
Lattice="11.20461838071637 0 0 0 11.20461838071637 0 0 0 11.20461838071637" Properties=species:S:1:pos:R:3 Step=5
WTR 0.506190 2.425624 2.303068
WTR 2.950270 2.276186 4.250200
POX 0.777213 2.081852 7.054230
POX 1.437705 2.171025 10.439751
POX 2.708585 4.945170 1.643156
POX 0.508101 7.351131 2.772391
WTR 1.666135 5.212956 5.694298
WTR 2.741572 5.599744 8.652228
POX 4.091797 7.926799 0.963218
POX 3.076855 10.440104 3.098432
WTR 1.730173 8.653410 5.930612
POX 0.005464 10.700400 0.842124
POX 1.246780 9.947350 8.916567
WTR 4.352082 2.023067 1.429453
WTR 5.762241 0.889507 4.020771
WTR 4.692835 0.878603 9.247145
WTR 6.598769 5.871003 1.954089
POX 4.801963 3.347673 7.202009
POX 4.686540 6.453972 5.704166
WTR 5.369460 4.595151 10.468320
WTR 6.154152 10.181621 1.504649
WTR 4.806373 10.172044 6.434550
WTR 5.466027 8.637788 8.683636
WTR 8.116713 1.620613 1.162940
POX 7.793054 0.533093 7.248998
POX 9.354114 0.583187 4.172225
WTR 9.362972 3.040405 9.861716
WTR 9.750480 4.483872 1.499045
WTR 9.399373 5.476914 4.617025
WTR 10.575801 6.569818 9.625234
WTR 8.972350 7.796404 1.313834
POX 7.390480 8.741022 4.446122
POX 9.627690 8.714023 7.072929
WTR 8.062440 10.422682 10.241317
34
Lattice="11.20461838071637 0 0 0 11.20461838071637 0 0 0 11.20461838071637" Properties=species:S:1:pos:R:3 Step=6
WTR 0.492602 2.447668 2.258960
WTR 2.910243 2.307131 4.194697
POX 0.763840 2.066333 7.029180
POX 1.424333 2.155507 10.414700
POX 2.713252 4.968976 1.615941
POX 0.512768 7.374936 2.745176
WTR 1.649773 5.236921 5.752731
WTR 2.781435 5.545417 8.661077
POX 4.107101 7.915977 0.978092
POX 3.092160 10.429283 3.113307
WTR 1.688798 8.700706 5.944786
POX 11.184716 10.737427 0.858076
POX 1.221413 9.984376 8.932519
WTR 4.314181 2.027331 1.466252
WTR 5.746323 0.846218 4.019421
WTR 4.721610 0.931223 9.233009
WTR 6.626320 5.875494 1.885766
POX 4.766076 3.348949 7.182907
POX 4.650653 6.455248 5.685065
WTR 5.385685 4.515311 10.464598
WTR 6.178564 10.168333 1.529985
WTR 4.831980 10.164187 6.437956
WTR 5.455264 8.621379 8.641420
WTR 8.151404 1.555041 1.160533
POX 7.810072 0.509927 7.233910
POX 9.371132 0.560021 4.157137
WTR 9.359268 3.094718 9.907986
WTR 9.726250 4.457821 1.542264
WTR 9.476196 5.459921 4.634072
WTR 10.632000 6.644229 9.655690
WTR 8.980567 7.762514 1.310227
POX 7.405113 8.732004 4.479862
POX 9.642323 8.705006 7.106668
WTR 8.002102 10.454297 10.263271
34
Lattice="11.20461838071637 0 0 0 11.20461838071637 0 0 0 11.20461838071637" Properties=species:S:1:pos:R:3 Step=7
WTR 0.480323 2.468567 2.226700
WTR 2.866728 2.349026 4.145250
POX 0.753986 2.054356 6.997337
POX 1.414478 2.143530 10.382857
POX 2.719013 4.986301 1.591558
POX 0.518529 7.392261 2.720793
WTR 1.622862 5.259398 5.809718
WTR 2.819881 5.492522 8.677526
POX 4.119815 7.906065 0.989261
POX 3.104874 10.419370 3.124475
WTR 1.648534 8.747603 5.953027
POX 11.156365 10.771134 0.879649
POX 1.193062 10.018083 8.954091
WTR 4.278233 2.029208 1.496169
WTR 5.741371 0.805635 4.024226
WTR 4.752183 0.976120 9.228347
WTR 6.655089 5.875697 1.818349
POX 4.730927 3.353005 7.158206
POX 4.615504 6.459304 5.660363
WTR 5.402788 4.428603 10.460452
WTR 6.215907 10.165398 1.559782
WTR 4.849143 10.168729 6.421446
WTR 5.449524 8.590121 8.617593
WTR 8.185195 1.488142 1.160159
POX 7.828004 0.488915 7.217158
POX 9.389064 0.539009 4.140385
WTR 9.354280 3.152171 9.952031
WTR 9.694138 4.440271 1.585727
WTR 9.557084 5.442860 4.653141
WTR 10.693595 6.721222 9.691456
WTR 8.976160 7.733793 1.296734
POX 7.419162 8.719240 4.513954
POX 9.656372 8.692242 7.140760
WTR 7.941376 10.482638 10.286315
34
Lattice="11.20461838071637 0 0 0 11.20461838071637 0 0 0 11.20461838071637" Properties=species:S:1:pos:R:3 Step=8
WTR 0.470810 2.488022 2.207431
WTR 2.821172 2.400124 4.105241
POX 0.748128 2.046802 6.959237
POX 1.408621 2.135975 10.344757
POX 2.724926 4.994852 1.570861
POX 0.524441 7.400812 2.700096
WTR 1.584911 5.279798 5.863876
WTR 2.854547 5.444071 8.703348
POX 4.130330 7.899677 0.996107
POX 3.115388 10.412982 3.131321
WTR 1.611095 8.793044 5.954608
POX 11.125884 10.799667 0.906365
POX 1.162582 10.046617 8.980807
WTR 4.246314 2.028042 1.516450
WTR 5.748789 0.771076 4.035692
WTR 4.784208 1.010824 9.234674
WTR 6.683139 5.870321 1.753693
POX 4.697866 3.359755 7.127304
POX 4.582444 6.466054 5.629462
WTR 5.420505 4.336441 10.455990
WTR 6.263288 10.170514 1.594217
WTR 4.856835 10.185372 6.386390
WTR 5.448810 8.544445 8.612663
WTR 8.217204 1.424388 1.162356
POX 7.846538 0.470718 7.199525
POX 9.407599 0.520812 4.122752
WTR 9.347911 3.211575 9.992510
WTR 9.653069 4.433184 1.628652
WTR 9.640249 5.426165 4.674289
WTR 10.759788 6.798544 9.732559
WTR 8.959749 7.712328 1.273176
POX 7.431881 8.702493 4.547315
POX 9.669091 8.675494 7.174121
WTR 7.882017 10.505737 10.306612
34
Lattice="11.20461838071637 0 0 0 11.20461838071637 0 0 0 11.20461838071637" Properties=species:S:1:pos:R:3 Step=9
WTR 0.464519 2.506358 2.200072
WTR 2.775645 2.457935 4.077591
POX 0.746197 2.044079 6.916419
POX 1.406690 2.133252 10.301939
POX 2.729824 4.993338 1.554143
POX 0.529339 7.399299 2.683379
WTR 1.537181 5.298049 5.914348
WTR 2.883111 5.402997 8.739666
POX 4.139259 7.899140 0.998415
POX 3.124318 10.412446 3.133629
WTR 1.578031 8.836222 5.949421
POX 11.094724 10.821572 0.936947
POX 1.131421 10.068521 9.011389
WTR 4.220393 2.023106 1.525389
WTR 5.768942 0.745925 4.053173
WTR 4.817245 1.034499 9.251852
WTR 6.707750 5.858208 1.693485
POX 4.667936 3.368429 7.090216
POX 4.552514 6.474729 5.592373
WTR 5.438565 4.240716 10.451370
WTR 6.316447 10.180048 1.633442
WTR 4.855320 10.210245 6.339285
WTR 5.451974 8.488102 8.622634
WTR 8.246410 1.369253 1.167486
POX 7.865268 0.455733 7.182017
POX 9.426329 0.505826 4.105244
WTR 9.340195 3.271330 10.028347
WTR 9.603460 4.436913 1.670551
WTR 9.723427 5.410204 4.697430
WTR 10.829506 6.873758 9.778843
WTR 8.934397 7.700152 1.240569
POX 7.442557 8.681855 4.578869
POX 9.679767 8.654857 7.205675
WTR 7.825690 10.521644 10.319660
34
Lattice="11.20461838071637 0 0 0 11.20461838071637 0 0 0 11.20461838071637" Properties=species:S:1:pos:R:3 Step=10
WTR 0.460452 2.524487 2.201712
WTR 2.732608 2.520151 4.063955
POX 0.747652 2.046175 6.870831
POX 1.408145 2.135349 10.256352
POX 2.732882 4.982018 1.541028
POX 0.532398 7.387978 2.670263
WTR 1.482483 5.314683 5.961276
WTR 2.904083 5.371133 8.786787
POX 4.147104 7.905569 0.996420
POX 3.132163 10.418874 3.131635
WTR 1.550297 8.876856 5.937896
POX 11.064614 10.835968 0.969683
POX 1.101311 10.082917 9.044125
WTR 4.201682 2.013764 1.522907
WTR 5.801282 0.732963 4.074923
WTR 4.850873 1.048007 9.278203
WTR 6.725901 5.838547 1.638683
POX 4.641489 3.377930 7.047446
POX 4.526067 6.484229 5.549604
WTR 5.456847 4.143121 10.446722
WTR 6.371254 10.190096 1.677615
WTR 4.845323 10.238092 6.288314
WTR 5.457583 8.425644 8.642082
WTR 8.271638 1.327966 1.175355
POX 7.883834 0.443987 7.165731
POX 9.444895 0.494081 4.088958
WTR 9.331263 3.330178 10.059042
WTR 9.547057 4.450170 1.711421
WTR 9.804411 5.395107 4.722403
WTR 10.901894 6.944949 9.830163
WTR 8.904370 7.698919 1.200524
POX 7.450690 8.657557 4.607881
POX 9.687901 8.630559 7.234687
WTR 7.773323 10.529005 10.321645
34
Lattice="11.20461838071637 0 0 0 11.20461838071637 0 0 0 11.20461838071637" Properties=species:S:1:pos:R:3 Step=11
WTR 0.456469 2.543373 2.208659
WTR 2.694834 2.584912 4.064519
POX 0.751733 2.052835 6.824385
POX 1.412226 2.142009 10.209905
POX 2.733916 4.962571 1.530672
POX 0.533431 7.368531 2.659908
WTR 1.424907 5.330622 6.005741
WTR 2.917163 5.348828 8.844040
POX 4.154023 7.918679 0.990699
POX 3.139082 10.431984 3.125913
WTR 1.528226 8.915055 5.920757
POX 11.037362 10.842437 1.002727
POX 1.074060 10.089386 9.077169
WTR 4.190458 1.999634 1.510109
WTR 5.844692 0.734261 4.098508
WTR 4.884624 1.052977 9.311186
WTR 6.734743 5.811209 1.589507
POX 4.618242 3.387281 6.999967
POX 4.502819 6.493580 5.502125
WTR 5.475403 4.045140 10.442116
WTR 6.424634 10.197287 1.726405
WTR 4.827380 10.264190 6.240607
WTR 5.464555 8.360592 8.666616
WTR 8.291305 1.304577 1.184792
POX 7.901930 0.435265 7.151837
POX 9.462990 0.485359 4.075064
WTR 9.321324 3.387318 10.084560
WTR 9.486599 4.470598 1.751616
WTR 9.880801 5.380767 4.748776
WTR 10.976283 7.010755 9.886394
WTR 8.873587 7.709647 1.154721
POX 7.456025 8.629877 4.634001
POX 9.693236 8.602878 7.260807
WTR 7.725107 10.527411 10.310691
34
Lattice="11.20461838071637 0 0 0 11.20461838071637 0 0 0 11.20461838071637" Properties=species:S:1:pos:R:3 Step=12
WTR 0.450059 2.563516 2.217420
WTR 2.665006 2.650798 4.078090
POX 0.757644 2.063647 6.778707
POX 1.418136 2.152820 10.164227
POX 2.733299 4.937511 1.522033
POX 0.532815 7.343472 2.651268
WTR 1.369649 5.346948 6.049686
WTR 2.923176 5.335114 8.909836
POX 4.159907 7.937225 0.982000
POX 3.144966 10.450531 3.117214
WTR 1.511635 8.951100 5.898855
POX 11.014692 10.840978 1.034296
POX 1.051389 10.087927 9.108739
WTR 4.186309 1.980697 1.488965
WTR 5.897674 0.751041 4.121564
WTR 4.917898 1.050797 9.348040
WTR 6.731976 5.777128 1.545594
POX 4.597508 3.395898 6.949006
POX 4.482086 6.502198 5.451163
WTR 5.494448 3.948333 10.437583
WTR 6.474837 10.199205 1.778758
WTR 4.801839 10.285155 6.201167
WTR 5.472252 8.295095 8.693407
WTR 8.303521 1.301460 1.193627
POX 7.919263 0.429256 7.141496
POX 9.480324 0.479349 4.064723
WTR 9.310634 3.442349 10.105173
WTR 9.425409 4.495460 1.791643
WTR 9.949339 5.366874 4.775468
WTR 11.051998 7.069945 9.947405
WTR 8.844554 7.732365 1.104704
POX 7.458541 8.599108 4.657204
POX 9.695751 8.572110 7.284010
WTR 7.680787 10.517407 10.287551
34
Lattice="11.20461838071637 0 0 0 11.20461838071637 0 0 0 11.20461838071637" Properties=species:S:1:pos:R:3 Step=13
WTR 0.439163 2.584765 2.225402
WTR 2.645140 2.716826 4.102196
POX 0.764614 2.078016 6.735009
POX 1.425107 2.167190 10.120529
POX 2.731690 4.909474 1.514066
POX 0.531206 7.315435 2.643302
WTR 1.322791 5.364793 6.095920
WTR 2.923656 5.328288 8.982101
POX 4.164539 7.959624 0.971081
POX 3.149598 10.472929 3.106295
WTR 1.499929 8.985311 5.873039
POX 10.998016 10.832110 1.062803
POX 1.034714 10.079059 9.137245
WTR 4.188503 1.957299 1.461653
WTR 5.958325 0.783387 4.142674
WTR 4.949939 1.041977 9.386148
WTR 6.716032 5.738373 1.506129
POX 4.578468 3.403600 6.895843
POX 4.463045 6.509899 5.398000
WTR 5.514332 3.854580 10.433150
WTR 6.521345 10.194580 1.832910
WTR 4.769260 10.299278 6.172499
WTR 5.480232 8.230206 8.720835
WTR 8.306658 1.319033 1.199388
POX 7.935550 0.425664 7.135745
POX 9.496611 0.475758 4.058972
WTR 9.299454 3.495220 10.121349
WTR 9.366954 4.522214 1.832058
WTR 10.005683 5.352959 4.800598
WTR 11.128324 7.121103 10.013117
WTR 8.818097 7.765933 1.051819
POX 7.458430 8.565533 4.677726
POX 9.695641 8.538535 7.304532
WTR 7.639957 10.500098 10.255192
34
Lattice="11.20461838071637 0 0 0 11.20461838071637 0 0 0 11.20461838071637" Properties=species:S:1:pos:R:3 Step=14
WTR 0.422695 2.606436 2.231231
WTR 2.636293 2.782377 4.133081
POX 0.771878 2.095121 6.694220
POX 1.432371 2.184295 10.079740
POX 2.729791 4.880736 1.505880
POX 0.529306 7.286696 2.635116
WTR 1.290519 5.385290 6.147755
WTR 2.920345 5.326575 9.058684
POX 4.167704 7.984380 0.958603
POX 3.152762 10.497685 3.093817
WTR 1.492250 9.017944 5.844123
POX 10.988220 10.817018 1.086895
POX 1.024917 10.063967 9.161337
WTR 4.196254 1.930119 1.430129
WTR 6.024193 0.830098 4.161711
WTR 4.979772 1.025897 9.423076
WTR 6.686038 5.697725 1.469993
POX 4.560428 3.410449 6.841724
POX 4.445005 6.516749 5.343881
WTR 5.535500 3.766369 10.428897
WTR 6.564421 10.183321 1.886748
WTR 4.730808 10.306503 6.154780
WTR 5.488070 8.166327 8.748081
WTR 8.300000 1.355746 1.200095
POX 7.950522 0.424278 7.135316
POX 9.511582 0.474372 4.058543
WTR 9.288037 3.546106 10.133650
WTR 9.314443 4.548791 1.873329
WTR 10.044996 5.338448 4.821720
WTR 11.204582 7.162351 10.083557
WTR 8.793839 7.808267 0.997243
POX 7.456062 8.529444 4.696045
POX 9.693272 8.502446 7.322851
WTR 7.602334 10.476617 10.217546
34
Lattice="11.20461838071637 0 0 0 11.20461838071637 0 0 0 11.20461838071637" Properties=species:S:1:pos:R:3 Step=15
WTR 0.400541 2.627563 2.234651
WTR 2.638319 2.847001 4.165683
POX 0.778640 2.113924 6.657094
POX 1.439133 2.203097 10.042614
POX 2.728214 4.852977 1.496829
POX 0.527729 7.258937 2.626064
WTR 1.277205 5.409487 6.207905
WTR 2.914876 5.328569 9.137554
POX 4.169216 8.010297 0.945182
POX 3.154274 10.523603 3.080396
WTR 1.487597 9.049205 5.812901
POX 10.985582 10.797528 1.105523
POX 1.022280 10.044478 9.179965
WTR 4.208864 1.900148 1.395988
WTR 6.092406 0.888907 4.179381
WTR 5.006157 1.000953 9.456497
WTR 6.641934 5.657946 1.436113
POX 4.542962 3.416585 6.787912
POX 4.427539 6.522884 5.290069
WTR 5.558630 3.686902 10.424919
WTR 6.604586 10.166443 1.938246
WTR 4.688312 10.307982 6.146626
WTR 5.495635 8.103610 8.774589
WTR 8.284178 1.408362 1.194937
POX 7.963976 0.424969 7.140433
POX 9.525037 0.475063 4.063660
WTR 9.276632 3.595272 10.142647
WTR 9.270237 4.573872 1.915610
WTR 10.064015 5.322777 4.836884
WTR 0.074939 7.191272 10.158852
WTR 8.770960 7.856738 0.942019
POX 7.451936 8.491190 4.712678
POX 9.689147 8.464192 7.339484
WTR 7.567893 10.447774 10.178884
34
Lattice="11.20461838071637 0 0 0 11.20461838071637 0 0 0 11.20461838071637" Properties=species:S:1:pos:R:3 Step=16
WTR 0.373385 2.647123 2.236134
WTR 2.649813 2.910293 4.193846
POX 0.784102 2.133298 6.624277
POX 1.444595 2.222472 10.009797
POX 2.727432 4.827392 1.486583
POX 0.526948 7.233352 2.615818
WTR 1.283282 5.438141 6.277095
WTR 2.908661 5.333367 9.216813
POX 4.168909 8.036365 0.931389
POX 3.153968 10.549671 3.066604
WTR 1.484912 9.079084 5.780148
POX 10.989835 10.775807 1.118012
POX 1.026532 10.022757 9.192454
WTR 4.225741 1.868646 1.360484
WTR 6.159921 0.957064 4.196417
WTR 5.027667 0.965178 9.484267
WTR 6.584804 5.621094 1.403780
POX 4.526062 3.422185 6.735783
POX 4.410639 6.528484 5.237940
WTR 5.584499 3.619606 10.421161
WTR 6.642235 10.145759 1.985811
WTR 4.643938 10.305381 6.146067
WTR 5.502857 8.042139 8.799916
WTR 8.260806 1.472583 1.184388
POX 7.975879 0.427632 7.150710
POX 9.536939 0.477725 4.073937
WTR 9.265490 3.643001 10.148870
WTR 9.235167 4.597181 1.958486
WTR 10.063165 5.305595 4.846076
WTR 0.147277 7.205375 10.239112
WTR 8.748787 7.908527 0.887028
POX 7.446644 8.451188 4.728159
POX 9.683855 8.424190 7.354966
WTR 7.536870 10.413980 10.143038
34
Lattice="11.20461838071637 0 0 0 11.20461838071637 0 0 0 11.20461838071637" Properties=species:S:1:pos:R:3 Step=17
WTR 0.342396 2.664291 2.236401
WTR 2.668031 2.971877 4.210928
POX 0.787589 2.152249 6.596177
POX 1.448081 2.241423 9.981697
POX 2.727756 4.804676 1.475143
POX 0.527272 7.210637 2.604378
WTR 1.305199 5.471544 6.353923
WTR 2.902899 5.340555 9.294812
POX 4.166658 8.061822 0.917725
POX 3.151717 10.575128 3.052939
WTR 1.483127 9.107478 5.746521
POX 11.000289 10.753790 1.124166
POX 1.036986 10.000739 9.198609
WTR 4.246441 1.836973 1.324483
WTR 6.223983 1.032219 4.213121
WTR 5.042954 0.917186 9.504786
WTR 6.516849 5.588195 1.372812
POX 4.510207 3.427411 6.686822
POX 4.394785 6.533711 5.188980
WTR 5.613788 3.566889 10.417151
WTR 6.677595 10.123709 2.028553
WTR 4.599654 10.300300 6.151262
WTR 5.509710 7.981811 8.823764
WTR 8.231661 1.544025 1.169682
POX 7.986463 0.432120 7.165248
POX 9.547524 0.482214 4.088476
WTR 9.254842 3.689711 10.152790
WTR 9.208156 4.619247 2.000906
WTR 10.046495 5.286914 4.851630
WTR 0.216062 7.203074 10.324307
WTR 8.726937 7.961062 0.832808
POX 7.440802 8.409792 4.743049
POX 9.678013 8.382793 7.369855
WTR 7.509593 10.375246 10.112958
34
Lattice="11.20461838071637 0 0 0 11.20461838071637 0 0 0 11.20461838071637" Properties=species:S:1:pos:R:3 Step=18
WTR 0.308731 2.678542 2.236051
WTR 2.688857 3.031154 4.210622
POX 0.788696 2.170107 6.572789
POX 1.449189 2.259280 9.958309
POX 2.729355 4.785085 1.462856
POX 0.528870 7.191046 2.592092
WTR 1.337750 5.509531 6.436103
WTR 2.898637 5.350121 9.370074
POX 4.162314 8.086208 0.904592
POX 3.147372 10.599514 3.039806
WTR 1.481207 9.134311 5.712477
POX 11.016061 10.732684 1.124321
POX 1.052758 9.979634 9.198763
WTR 4.270721 1.806422 1.288436
WTR 6.282497 1.112583 4.229348
WTR 5.050981 0.856969 9.517274
WTR 6.440876 5.559475 1.343581
POX 4.496221 3.432506 6.642595
POX 4.380799 6.538806 5.144752
WTR 5.646899 3.529038 10.411669
WTR 6.710622 10.102877 2.066283
WTR 4.556900 10.293981 6.160832
WTR 5.516212 7.922261 8.845974
WTR 8.198044 1.619056 1.152253
POX 7.996218 0.438216 7.182908
POX 9.557279 0.488309 4.106135
WTR 9.244896 3.736013 10.154786
WTR 9.186647 4.641109 2.041269
WTR 10.019673 5.267108 4.857266
WTR 0.281133 7.184473 10.413896
WTR 8.705511 8.012166 0.779506
POX 7.435000 8.367219 4.757900
POX 9.672211 8.340220 7.384706
WTR 7.486359 10.331308 10.090532
34
Lattice="11.20461838071637 0 0 0 11.20461838071637 0 0 0 11.20461838071637" Properties=species:S:1:pos:R:3 Step=19
WTR 0.273380 2.689630 2.235381
WTR 2.707175 3.087114 4.188207
POX 0.787371 2.186575 6.553713
POX 1.447864 2.275749 9.939234
POX 2.732272 4.768613 1.450483
POX 0.531787 7.174574 2.579718
WTR 1.376280 5.551619 6.521659
WTR 2.896887 5.362336 9.440890
POX 4.155723 8.109311 0.892309
POX 3.140782 10.622616 3.027524
WTR 1.478158 9.159507 5.678323
POX 11.036226 10.712871 1.119199
POX 1.072923 9.959821 9.193642
WTR 4.298539 1.778150 1.252479
WTR 6.333996 1.197077 4.244693
WTR 5.051068 0.786195 9.521718
WTR 6.359693 5.534893 1.316957
POX 4.485026 3.437651 6.604648
POX 4.369604 6.543951 5.106805
WTR 5.683815 3.504070 10.402722
WTR 6.741064 10.085617 2.099308
WTR 4.516634 10.287273 6.173877
WTR 5.522408 7.862960 8.866476
WTR 8.160779 1.695116 1.133406
POX 8.005763 0.445626 7.202567
POX 9.566824 0.495720 4.125794
WTR 9.235864 3.782628 10.155120
WTR 9.167499 4.663960 2.077588
WTR 9.987811 5.246762 4.866795
WTR 0.342865 7.151367 10.506138
WTR 8.685074 8.059854 0.727065
POX 7.429793 8.323587 4.773196
POX 9.667004 8.296588 7.400002
WTR 7.467374 10.281964 10.076576
34
Lattice="11.20461838071637 0 0 0 11.20461838071637 0 0 0 11.20461838071637" Properties=species:S:1:pos:R:3 Step=20
WTR 0.237114 2.697559 2.234356
WTR 2.718499 3.138213 4.142600
POX 0.783889 2.201692 6.538293
POX 1.444382 2.290866 9.923813
POX 2.736436 4.755253 1.439288
POX 0.535952 7.161214 2.568524
WTR 1.417461 5.597180 6.609279
WTR 2.898741 5.377641 9.504910
POX 4.146760 8.131113 0.881102
POX 3.131819 10.644419 3.016316
WTR 1.473039 9.182942 5.644302
POX 11.059935 10.694143 1.109720
POX 1.096632 9.941093 9.184162
WTR 4.329982 1.753132 1.216587
WTR 6.377539 1.285172 4.258672
WTR 5.042837 0.707570 9.518560
WTR 6.275741 5.514494 1.294160
POX 4.477161 3.442855 6.574073
POX 4.361738 6.549154 5.076230
WTR 5.724142 3.488530 10.387842
WTR 6.768552 10.073846 2.128240
WTR 4.479477 10.280721 6.189852
WTR 5.528341 7.803297 8.885236
WTR 8.120250 1.770301 1.114213
POX 8.015691 0.453994 7.223291
POX 9.576751 0.504087 4.146518
WTR 9.227996 3.830276 10.153930
WTR 9.147783 4.688922 2.107799
WTR 9.954636 5.226489 4.883268
WTR 0.401713 7.106717 10.597390
WTR 8.666655 8.102006 0.675666
POX 7.425722 8.278997 4.789326
POX 9.662932 8.251999 7.416132
WTR 7.452605 10.227512 10.070774
34
Lattice="11.20461838071637 0 0 0 11.20461838071637 0 0 0 11.20461838071637" Properties=species:S:1:pos:R:3 Step=21
WTR 0.200377 2.702581 2.232645
WTR 2.720723 3.182216 4.078381
POX 0.778694 2.215728 6.525771
POX 1.439187 2.304902 9.911291
POX 2.741669 4.745193 1.431019
POX 0.541185 7.151154 2.560254
WTR 1.459197 5.645682 6.698232
WTR 2.905486 5.396548 9.559113
POX 4.135341 8.151813 0.871102
POX 3.120400 10.665118 3.006316
WTR 1.464954 9.204471 5.610593
POX 11.086523 10.676013 1.096780
POX 1.123220 9.922963 9.171223
WTR 4.365250 1.732044 1.180651
WTR 6.412836 1.376803 4.270852
WTR 5.026128 0.623723 9.508363
WTR 6.190884 5.498412 1.276460
POX 4.472363 3.447916 6.550938
POX 4.356941 6.554216 5.053095
WTR 5.767354 3.478636 10.364498
WTR 6.792778 10.068907 2.153921
WTR 4.445770 10.274632 6.208459
WTR 5.534061 7.742601 8.902265
WTR 8.076529 1.843337 1.095496
POX 8.026461 0.462930 7.244434
POX 9.587522 0.513024 4.167662
WTR 9.221577 3.879700 10.151258
WTR 9.125209 4.717069 2.130266
WTR 9.922252 5.206724 4.908961
WTR 0.457925 7.053588 10.681428
WTR 8.651771 8.136122 0.626040
POX 7.423332 8.233513 4.806581
POX 9.660543 8.206514 7.433387
WTR 7.441463 10.169131 10.071537
34
Lattice="11.20461838071637 0 0 0 11.20461838071637 0 0 0 11.20461838071637" Properties=species:S:1:pos:R:3 Step=22
WTR 0.163137 2.705100 2.229688
WTR 2.714384 3.215579 4.006169
POX 0.772222 2.229107 6.515437
POX 1.432714 2.318280 9.900957
POX 2.747689 4.739102 1.427524
POX 0.547205 7.145063 2.556760
WTR 1.500313 5.696934 6.788378
WTR 2.918739 5.419542 9.600260
POX 4.121415 8.171865 0.862306
POX 3.106473 10.685170 2.997520
WTR 1.453035 9.223994 5.577263
POX 11.115611 10.657930 1.081062
POX 1.152308 9.904880 9.155505
WTR 4.404682 1.715167 1.144497
WTR 6.440367 1.472431 4.280908
WTR 5.000861 0.536306 9.491574
WTR 6.106279 5.486618 1.264808
POX 4.469434 3.452509 6.534242
POX 4.354012 6.558808 5.036399
WTR 5.813109 3.471240 10.330451
WTR 6.813673 10.071522 2.177349
WTR 4.415552 10.269145 6.229617
WTR 5.539636 7.680025 8.917660
WTR 8.029439 1.913621 1.077840
POX 8.038364 0.472080 7.265678
POX 9.599425 0.522174 4.188905
WTR 9.216915 3.931769 10.147079
WTR 9.098254 4.749408 2.144249
WTR 9.891753 5.187561 4.945172
WTR 0.511515 6.994205 10.749698
WTR 8.642492 8.159086 0.579750
POX 7.423202 8.187087 4.825193
POX 9.660413 8.160089 7.452000
WTR 7.432449 10.109200 10.075948
34
Lattice="11.20461838071637 0 0 0 11.20461838071637 0 0 0 11.20461838071637" Properties=species:S:1:pos:R:3 Step=23
WTR 0.124974 2.705677 2.224774
WTR 2.701299 3.232432 3.941295
POX 0.764886 2.242274 6.506790
POX 1.425379 2.331447 9.892310
POX 2.754103 4.738454 1.429837
POX 0.553619 7.144415 2.559073
WTR 1.539998 5.750990 6.879589
WTR 2.940567 5.446747 9.625690
POX 4.105013 8.191892 0.854613
POX 3.090071 10.705197 2.989827
WTR 1.436483 9.241399 5.544413
POX 11.146993 10.639447 1.063002
POX 1.183690 9.886397 9.137444
WTR 4.448513 1.702492 1.108022
WTR 6.460951 1.572601 4.288533
WTR 4.966988 0.446130 9.468521
WTR 6.022731 5.478729 1.259592
POX 4.466747 3.456288 6.522633
POX 4.351325 6.562587 5.024790
WTR 5.861209 3.464409 10.284082
WTR 6.831397 10.081863 2.199448
WTR 4.388710 10.264283 6.253335
WTR 5.545152 7.614769 8.931537
WTR 7.978869 1.980822 1.061759
POX 8.051482 0.481122 7.286880
POX 9.612542 0.531215 4.210108
WTR 9.214358 3.987304 10.141345
WTR 9.066204 4.786917 2.150022
WTR 9.863560 5.168808 4.992099
WTR 0.562186 6.929825 10.792441
WTR 8.641539 8.166934 0.539573
POX 7.425965 8.139702 4.845314
POX 9.663175 8.112703 7.472120
WTR 7.423041 10.051422 10.079943
34
Lattice="11.20461838071637 0 0 0 11.20461838071637 0 0 0 11.20461838071637" Properties=species:S:1:pos:R:3 Step=24
WTR 0.085889 2.705041 2.217209
WTR 2.683223 3.225028 3.900820
POX 0.757091 2.255499 6.499671
POX 1.417583 2.344673 9.885191
POX 2.760173 4.745290 1.437062
POX 0.559689 7.151251 2.566297
WTR 1.576987 5.807483 6.970242
WTR 2.973313 5.477195 9.634196
POX 4.086479 8.212397 0.847927
POX 3.071538 10.725703 2.983142
WTR 1.414832 9.256386 5.512605
POX 11.180183 10.620469 1.043040
POX 1.216880 9.867419 9.117483
WTR 4.496261 1.693905 1.071685
WTR 6.475609 1.676569 4.293320
WTR 4.924861 0.354508 9.439818
WTR 5.942732 5.474001 1.260422
POX 4.462790 3.458948 6.515131
POX 4.347368 6.565247 5.017288
WTR 5.910682 3.457590 10.225096
WTR 6.846146 10.099467 2.220666
WTR 4.365283 10.260017 6.279251
WTR 5.550657 7.546904 8.943868
WTR 7.925559 2.044009 1.047968
POX 8.065548 0.489687 7.307720
POX 9.626609 0.539781 4.230947
WTR 9.214302 4.046356 10.134114
WTR 9.029412 4.830028 2.148730
WTR 9.837902 5.150297 5.048395
WTR 0.608535 6.861825 10.802331
WTR 8.651843 8.155523 0.509466
POX 7.432226 8.091932 4.866789
POX 9.669436 8.064934 7.493595
WTR 7.410233 10.000634 10.079144
34
Lattice="11.20461838071637 0 0 0 11.20461838071637 0 0 0 11.20461838071637" Properties=species:S:1:pos:R:3 Step=25
WTR 0.046809 2.704106 2.206598
WTR 2.661539 3.188379 3.895545
POX 0.749288 2.268713 6.494293
POX 1.409781 2.357887 9.879813
POX 2.764759 4.760620 1.446754
POX 0.564274 7.166580 2.575990
WTR 1.609056 5.865022 7.056111
WTR 3.018911 5.508232 9.627135
POX 4.066721 8.233482 0.842232
POX 3.051780 10.746787 2.977447