26
Step 0 (scaled positions)
Ar 7.082155 12.281008 0.046176
Ar 950000006.717419 12.236680 -0.081586
Ar -949999992.738194 12.104163 -0.045516
Ar 5.078562 2.528435 1.578837
Ar 950000004.928378 2.721741 1.707663
Ar -949999994.798379 2.680175 1.437453
Ar 3.133804 5.865229 6.723701
Ar 1500000003.165941 5.877250 6.717375
Ar 3000000003.106034 5.869695 6.703869
Ar 4500000003.137738 5.863345 6.745603
Ar 3.421745 1000000006.037550 6.703376
Ar 2.987547 -999999994.216278 7.024544
Ar 1500000003.147499 1000000005.802499 6.768614
Ar 1500000003.496818 -999999994.068448 6.841273
Ar 3000000003.190001 1000000005.851032 6.541337
Ar 3000000003.079295 -999999994.124533 6.836060
Ar 9.183392 7.210709 11.661837
Ar 1500000009.185663 7.127776 11.709430
Ar 3000000009.167349 7.150228 11.671822
Ar 4500000009.140458 7.213443 11.713829
Ar 9.515638 1000000006.927079 11.402466
Ar 9.057134 -999999992.807617 11.797947
Ar 1500000009.196916 1000000006.820431 11.596417
Ar 1500000009.284242 -999999992.795676 11.778489
Ar 3000000009.105223 1000000007.130887 11.680407
Ar 3000000009.213008 -999999992.801095 11.668893
26
Step 10 (scaled positions)
Ar 6.905710 12.455844 0.488466
Ar 950000002.908758 12.183352 -1.015177
Ar -949999990.830761 11.314505 -0.626137
Ar 4.391466 2.828617 1.648182
Ar 950000002.724892 4.738843 3.161902
Ar -949999994.541664 3.692780 0.197330
Ar 2.762235 5.684541 6.409203
Ar 1500000003.114946 5.818118 6.341806
Ar 3000000002.455928 5.735008 6.193187
Ar 4500000002.662899 5.628017 6.531816
Ar 5.802340 1000000007.585092 6.106856
Ar 1.039639 -999999995.244173 9.641723
Ar 1500000002.793916 1000000004.989751 6.817935
Ar 1500000006.639345 -999999993.614755 7.591023
Ar 3000000003.309299 1000000005.513603 4.338149
Ar 3000000002.065679 -999999994.223665 7.577770
Ar 9.283367 7.949827 11.621264
Ar 1500000009.308343 7.037592 12.144768
Ar 3000000009.106938 7.284567 11.731128
Ar 4500000008.952915 8.017064 12.313649
Ar 13.064520 1000000004.826247 8.849121
Ar 8.007499 -999999992.218250 13.197395
Ar 1500000009.550299 1000000003.662898 10.989125
Ar 1500000010.507957 -999999992.090186 13.018075
Ar 3000000008.493819 1000000007.087933 11.892744
Ar 3000000009.705318 -999999992.157830 11.768431
26
Step 20 (scaled positions)
Ar 6.729264 12.630680 0.930755
Ar 949999999.153604 12.986881 -2.355669
Ar -949999988.333093 12.020566 -1.393731
Ar 3.702656 3.131816 1.722617
Ar 950000000.467899 5.899088 5.023042
Ar -949999994.875183 3.209664 -0.855820
Ar 2.393173 5.499897 6.088097
Ar 1500000003.064220 5.759039 5.966477
Ar 3000000001.805954 5.600350 5.682613
Ar 4500000002.130547 5.375856 6.268124
Ar 8.039593 1000000009.169263 5.442870
Ar -1.034908 -999999996.321014 12.186016
Ar 1500000002.262399 1000000004.203830 6.753384
Ar 1500000009.593761 -999999993.236188 8.073749
Ar 3000000003.412294 1000000005.172264 2.118219
Ar 3000000001.011910 -999999994.332513 8.292455
Ar 9.383121 8.688881 11.580513
Ar 1500000009.430756 6.947355 12.579866
Ar 3000000009.046398 7.418877 11.790326
Ar 4500000008.822886 8.837518 12.963375
Ar 16.756743 1000000002.688786 6.363243
Ar 7.084503 -999999991.579937 14.669730
Ar 1500000010.081616 1000000000.478538 10.495704
Ar 1500000011.919782 -999999991.309571 14.524687
Ar 3000000007.898717 1000000007.048889 12.121825
Ar 3000000010.237782 -999999991.504848 11.894994
26
Step 30 (scaled positions)
Ar 6.552819 12.805516 1.373044
Ar 949999995.398449 13.790411 -3.696160
Ar -949999985.835426 12.726627 -2.161325
Ar 3.010689 3.440754 1.807801
Ar 949999998.210906 7.059332 6.884182
Ar -949999995.208703 2.726549 -1.908971
Ar 2.028319 5.307599 5.752659
Ar 1500000003.013494 5.699961 5.591147
Ar 3000000001.155979 5.465691 5.172039
Ar 4500000001.598195 5.123695 6.004432
Ar 10.274851 1000000010.754277 4.778194
Ar -3.111321 -999999997.398698 14.729400
Ar 1500000001.711470 1000000003.423498 6.677730
Ar 1500000012.442306 -999999992.941327 8.275433
Ar 3000000003.515290 1000000004.830924 -0.101711
Ar 2999999999.958142 -999999994.441360 9.007140
Ar 9.482875 9.427935 11.539761
Ar 1500000009.553169 6.857117 13.014965
Ar 3000000008.985857 7.553187 11.849524
Ar 4500000008.692857 9.657973 13.613101
Ar 20.450961 1000000000.550481 3.878054
Ar 6.163373 -999999990.940782 16.142974
Ar 1500000010.632345 999999997.288589 10.013388
Ar 1500000013.437481 -999999990.445249 16.312340
Ar 3000000007.303616 1000000007.009846 12.350905
Ar 3000000010.770245 -999999990.851866 12.021557
26
Step 40 (scaled positions)
Ar 6.376373 12.980353 1.815334
Ar 949999991.643295 14.593940 -5.036652
Ar -949999983.337759 13.432688 -2.928919
Ar 2.314296 3.758122 1.910889
Ar 949999995.953913 8.219577 8.745322
Ar -949999995.542222 2.243434 -2.962121
Ar 1.669369 5.104063 5.393349
Ar 1500000002.962768 5.640882 5.215818
Ar 3000000000.506004 5.331033 4.661466
Ar 4500000001.065843 4.871534 5.740739
Ar 12.510109 1000000012.339291 4.113518
Ar -5.187735 -999999998.476382 17.272784
Ar 1500000001.160541 1000000002.643167 6.602075
Ar 1500000015.265675 -999999992.686809 8.345773
Ar 3000000003.618285 1000000004.489585 -2.321642
Ar 2999999998.904374 -999999994.550208 9.721825
Ar 9.582629 10.166989 11.499010
Ar 1500000009.675583 6.766879 13.450063
Ar 3000000008.925317 7.687497 11.908722
Ar 4500000008.562827 10.478428 14.262827
Ar 24.145180 999999998.412176 1.392866
Ar 5.242244 -999999990.301626 17.616217
Ar 1500000011.183074 999999994.098639 9.531071
Ar 1500000014.980355 -999999989.540584 18.231336
Ar 3000000006.708514 1000000006.970802 12.579985
Ar 3000000011.302708 -999999990.198884 12.148120
26
Step 50 (scaled positions)
Ar 6.199928 13.155189 2.257623
Ar 949999987.888140 15.397470 -6.377144
Ar -949999980.840091 14.138750 -3.696512
Ar 1.626646 4.055035 1.950396
Ar 949999993.696919 9.379821 10.606462
Ar -949999995.875741 1.760319 -4.015272
Ar 1.298759 4.927799 5.118814
Ar 1500000002.912042 5.581804 4.840489
Ar 2999999999.856030 5.196375 4.150892
Ar 4500000000.533491 4.619373 5.477047
Ar 14.745367 1000000013.924305 3.448842
Ar -7.264148 -999999999.554065 19.816168
Ar 1500000000.609612 1000000001.862836 6.526420
Ar 1500000018.089044 -999999992.432292 8.416113
Ar 3000000003.721281 1000000004.148245 -4.541572
Ar 2999999997.850606 -999999994.659056 10.436510
Ar 9.682383 10.906043 11.458259
Ar 1500000009.797996 6.676641 13.885162
Ar 3000000008.864777 7.821807 11.967921
Ar 4500000008.432797 11.298882 14.912554
Ar 27.839398 999999996.273871 -1.092323
Ar 4.321114 -999999989.662471 19.089461
Ar 1500000011.733803 999999990.908689 9.048755
Ar 1500000016.523229 -999999988.635919 20.150333
Ar 3000000006.113412 1000000006.931758 12.809066
Ar 3000000011.835171 -999999989.545902 12.274684
26
Step 60 (scaled positions)
Ar 6.023482 13.330025 2.699913
Ar 949999984.132985 16.200999 -7.717635
Ar -949999978.342424 14.844811 -4.464106
Ar 0.974232 4.257069 1.641342
Ar 949999991.439926 10.540066 12.467602
Ar -949999996.209261 1.277204 -5.068422
Ar 0.881169 4.878041 5.309028
Ar 1500000002.861315 5.522725 4.465159
Ar 2999999999.206056 5.061716 3.640318
Ar 4500000000.001140 4.367212 5.213354
Ar 16.980625 1000000015.509319 2.784166
Ar -9.340562 -1000000000.631749 22.359553
Ar 1500000000.058684 1000000001.082504 6.450766
Ar 1500000020.912413 -999999992.177775 8.486453
Ar 3000000003.824276 1000000003.806906 -6.761502
Ar 2999999996.796838 -999999994.767903 11.151194
Ar 9.782137 11.645097 11.417508
Ar 1500000009.920409 6.586403 14.320260
Ar 3000000008.804236 7.956117 12.027119
Ar 4500000008.302769 12.119337 15.562280
Ar 31.533617 999999994.135566 -3.577511
Ar 3.399985 -999999989.023316 20.562704
Ar 1500000012.284531 999999987.718740 8.566438
Ar 1500000018.066103 -999999987.731254 22.069330
Ar 3000000005.518310 1000000006.892714 13.038146
Ar 3000000012.367633 -999999988.892920 12.401247
26
Step 70 (scaled positions)
Ar 5.847037 13.504861 3.142202
Ar 949999980.377831 17.004529 -9.058127
Ar -949999975.844756 15.550872 -5.231700
Ar 0.327740 4.438511 1.239251
Ar 949999989.182933 11.700310 14.328742
Ar -949999996.542780 0.794088 -6.121573
Ar 0.455682 4.855738 5.623290
Ar 1500000002.810590 5.463647 4.089830
Ar 2999999998.556081 4.927058 3.129744
Ar 4499999999.468787 4.115051 4.949662
Ar 19.215883 1000000017.094333 2.119491
Ar -11.416976 -1000000001.709433 24.902937
Ar 1499999999.507755 1000000000.302173 6.375111
Ar 1500000023.735783 -999999991.923258 8.556793
Ar 3000000003.927271 1000000003.465567 -8.981432
Ar 2999999995.743070 -999999994.876751 11.865879
Ar 9.881891 12.384151 11.376756
Ar 1500000010.042822 6.496166 14.755358
Ar 3000000008.743696 8.090427 12.086317
Ar 4500000008.172739 12.939792 16.212006
Ar 35.227836 999999991.997261 -6.062700
Ar 2.478855 -999999988.384160 22.035948
Ar 1500000012.835260 999999984.528790 8.084121
Ar 1500000019.608978 -999999986.826589 23.988327
Ar 3000000004.923208 1000000006.853671 13.267226
Ar 3000000012.900096 -999999988.239938 12.527810
26
Step 80 (scaled positions)
Ar 5.670591 13.679697 3.584491
Ar 949999976.622676 17.808058 -10.398619
Ar -949999973.347089 16.256933 -5.999294
Ar -0.318161 4.621820 0.856944
Ar 949999986.925940 12.860555 16.189882
Ar -949999996.876299 0.310973 -7.174723
Ar 0.029408 4.830947 5.911173
Ar 1500000002.759863 5.404569 3.714501
Ar 2999999997.906106 4.792400 2.619170
Ar 4499999998.936436 3.862890 4.685969
Ar 21.451141 1000000018.679347 1.454815
Ar -13.493389 -1000000002.787117 27.446321
Ar 1499999998.956826 999999999.521841 6.299456
Ar 1500000026.559152 -999999991.668741 8.627134
Ar 3000000004.030267 1000000003.124227 -11.201362
Ar 2999999994.689301 -999999994.985599 12.580564
Ar 9.981646 13.123205 11.336005
Ar 1500000010.165236 6.405928 15.190457
Ar 3000000008.683155 8.224737 12.145515
Ar 4500000008.042710 13.760247 16.861732
Ar 38.922054 999999989.858957 -8.547888
Ar 1.557726 -999999987.745005 23.509192
Ar 1500000013.385989 999999981.338840 7.601805
Ar 1500000021.151852 -999999985.921923 25.907323
Ar 3000000004.328107 1000000006.814627 13.496307
Ar 3000000013.432559 -999999987.586957 12.654373
26
Step 90 (scaled positions)
Ar 5.494146 13.854533 4.026781
Ar 949999972.867522 18.611588 -11.739110
Ar -949999970.849422 16.962994 -6.766887
Ar -0.963202 4.805769 0.488072
Ar 949999984.668947 14.020799 18.051022
Ar -949999997.209819 -0.172142 -8.227874
Ar -0.398013 4.805302 6.181144
Ar 1500000002.709137 5.345490 3.339171
Ar 2999999997.256132 4.657741 2.108596
Ar 4499999998.404083 3.610729 4.422277
Ar 23.686399 1000000020.264361 0.790139
Ar -15.569803 -1000000003.864800 29.989705
Ar 1499999998.405898 999999998.741510 6.223802
Ar 1500000029.382521 -999999991.414223 8.697474
Ar 3000000004.133262 1000000002.782888 -13.421293
Ar 2999999993.635533 -999999995.094446 13.295249
Ar 10.081400 13.862258 11.295254
Ar 1500000010.287649 6.315690 15.625555
Ar 3000000008.622615 8.359047 12.204713
Ar 4500000007.912681 14.580701 17.511458
Ar 42.616273 999999987.720652 -11.033077
Ar 0.636596 -999999987.105849 24.982435
Ar 1500000013.936718 999999978.148890 7.119488
Ar 1500000022.694726 -999999985.017258 27.826320
Ar 3000000003.733005 1000000006.775583 13.725387
Ar 3000000013.965023 -999999986.933975 12.780936
26
Step 100 (scaled positions)
Ar 5.317753 14.029373 4.469148
Ar 949999969.112367 19.415118 -13.079602
Ar -949999968.351754 17.669056 -7.534481
Ar -1.607613 4.989751 0.125788
Ar 949999982.411953 15.181043 19.912162
Ar -949999997.543338 -0.655257 -9.281024
Ar -0.826275 4.779613 6.442329
Ar 1500000002.658411 5.286412 2.963842
Ar 2999999996.606157 4.523083 1.598022
Ar 4499999997.871732 3.358568 4.158584
Ar 25.921657 1000000021.849375 0.125463
Ar -17.646216 -1000000004.942484 32.533089
Ar 1499999997.854969 999999997.961179 6.148147
Ar 1500000032.205891 -999999991.159706 8.767814
Ar 3000000004.236258 1000000002.441548 -15.641223
Ar 2999999992.581765 -999999995.203294 14.009933
Ar 10.181083 14.601307 11.254399
Ar 1500000010.410062 6.225452 16.060654
Ar 3000000008.562074 8.493357 12.263912
Ar 4500000007.782651 15.401156 18.161185
Ar 46.310492 999999985.582347 -13.518265
Ar -0.284533 -999999986.466694 26.455679
Ar 1500000014.487447 999999974.958941 6.637171
Ar 1500000024.237600 -999999984.112593 29.745317
Ar 3000000003.137903 1000000006.736539 13.954468
Ar 3000000014.497485 -999999986.280993 12.907500
26
Step 110 (scaled positions)
Ar 5.141628 14.204246 4.911885
Ar 949999965.357213 20.218647 -14.420094
Ar -949999965.854087 18.375117 -8.302075
Ar -2.251631 5.173637 -0.233245
Ar 949999980.154960 16.341288 21.773302
Ar -949999997.876857 -1.138372 -10.334175
Ar -1.255059 4.754051 6.699180
Ar 1500000002.607685 5.227333 2.588512
Ar 2999999995.956183 4.388425 1.087448
Ar 4499999997.339379 3.106407 3.894892
Ar 28.156915 1000000023.434389 -0.539213
Ar -19.722630 -1000000006.020168 35.076473
Ar 1499999997.304040 999999997.180847 6.072493
Ar 1500000035.029260 -999999990.905189 8.838154
Ar 3000000004.339253 1000000002.100209 -17.861153
Ar 2999999991.527997 -999999995.312142 14.724618
Ar 10.280410 15.340312 11.213050
Ar 1500000010.532475 6.135214 16.495752
Ar 3000000008.501534 8.627667 12.323110
Ar 4500000007.652622 16.221611 18.810911
Ar 50.004710 999999983.444042 -16.003454
Ar -1.205662 -999999985.827538 27.928922
Ar 1500000015.038176 999999971.768991 6.154855
Ar 1500000025.780474 -999999983.207928 31.664314
Ar 3000000002.542801 1000000006.697496 14.183548
Ar 3000000015.029948 -999999985.628011 13.034063
26
Step 120 (scaled positions)
Ar 4.965848 14.379197 5.355044
Ar 949999961.602058 21.022177 -15.760585
Ar -949999963.356420 19.081178 -9.069669
Ar -2.895413 5.357428 -0.590605
Ar 949999977.897967 17.501532 23.634442
Ar -949999998.210377 -1.621488 -11.387325
Ar -1.684160 4.728617 6.953801
Ar 1500000002.556959 5.168255 2.213183
Ar 2999999995.306209 4.253766 0.576875
Ar 4499999996.807028 2.854246 3.631199
Ar 30.392174 1000000025.019403 -1.203889
Ar -21.799043 -1000000007.097852 37.619857
Ar 1499999996.753111 999999996.400516 5.996838
Ar 1500000037.852629 -999999990.650671 8.908494
Ar 3000000004.442248 1000000001.758869 -20.081083
Ar 2999999990.474228 -999999995.420989 15.439303
Ar 10.379277 16.079213 11.171140
Ar 1500000010.654888 6.044977 16.930851
Ar 3000000008.440993 8.761977 12.382308
Ar 4500000007.522593 17.042066 19.460637
Ar 53.698929 999999981.305737 -18.488643
Ar -2.126792 -999999985.188383 29.402166
Ar 1500000015.588905 999999968.579041 5.672538
Ar 1500000027.323348 -999999982.303262 33.583310
Ar 3000000001.947700 1000000006.658452 14.412628
Ar 3000000015.562411 -999999984.975029 13.160626
26
Step 130 (scaled positions)
Ar 4.790461 14.554271 5.798626
Ar 949999957.846904 21.825706 -17.101077
Ar -949999960.858752 19.787239 -9.837263
Ar -3.539051 5.541145 -0.947063
Ar 949999975.640974 18.661777 25.495582
Ar -949999998.543896 -2.104603 -12.440476
Ar -2.113451 4.703281 7.207219
Ar 1500000002.506233 5.109176 1.837854
Ar 2999999994.656234 4.119108 0.066301
Ar 4499999996.274675 2.602085 3.367507
Ar 32.627432 1000000026.604417 -1.868565
Ar -23.875457 -1000000008.175536 40.163241
Ar 1499999996.202183 999999995.620185 5.921183
Ar 1500000040.675999 -999999990.396154 8.978834
Ar 3000000004.545244 1000000001.417530 -22.301014
Ar 2999999989.420460 -999999995.529837 16.153988
Ar 10.477619 16.817950 11.128666
Ar 1500000010.777302 5.954739 17.365949
Ar 3000000008.380453 8.896287 12.441506
Ar 4500000007.392563 17.862520 20.110363
Ar 57.393147 999999979.167433 -20.973831
Ar -3.047921 -999999984.549228 30.875409
Ar 1500000016.139634 999999965.389092 5.190222
Ar 1500000028.866222 -999999981.398597 35.502307
Ar 3000000001.352598 1000000006.619408 14.641709
Ar 3000000016.094874 -999999984.322047 13.287189
26
Step 140 (scaled positions)
Ar 4.615491 14.729511 6.242598
Ar 949999954.091749 22.629236 -18.441569
Ar -949999958.361085 20.493301 -10.604856
Ar -4.182620 5.724823 -1.303119
Ar 949999973.383981 19.822021 27.356722
Ar -949999998.877415 -2.587718 -13.493627
Ar -2.542835 4.677998 7.460101
Ar 1500000002.455507 5.050098 1.462524
Ar 2999999994.006259 3.984450 -0.444273
Ar 4499999995.742324 2.349924 3.103814
Ar 34.862690 1000000028.189432 -2.533241
Ar -25.951870 -1000000009.253219 42.706625
Ar 1499999995.651254 999999994.839853 5.845529
Ar 1500000043.499368 -999999990.141637 9.049174
Ar 3000000004.648239 1000000001.076190 -24.520944
Ar 2999999988.366692 -999999995.638685 16.868672
Ar 10.575406 17.556466 11.085671
Ar 1500000010.899715 5.864501 17.801047
Ar 3000000008.319912 9.030597 12.500704
Ar 4500000007.262534 18.682975 20.760089
Ar 61.087366 999999977.029128 -23.459020
Ar -3.969051 -999999983.910072 32.348653
Ar 1500000016.690363 999999962.199142 4.707905
Ar 1500000030.409096 -999999980.493932 37.421304
Ar 3000000000.757496 1000000006.580364 14.870789
Ar 3000000016.627337 -999999983.669066 13.413753
26
Step 150 (scaled positions)
Ar 4.440931 14.904944 6.686903
Ar 949999950.336595 23.432765 -19.782060
Ar -949999955.863418 21.199362 -11.372450
Ar -4.826187 5.908499 -1.659161
Ar 949999971.126987 20.982266 29.217862
Ar -949999999.210935 -3.070833 -14.546777
Ar -2.972222 4.652716 7.712966
Ar 1500000002.404781 4.991019 1.087195
Ar 2999999993.356285 3.849792 -0.954847
Ar 4499999995.209971 2.097763 2.840122
Ar 37.097948 1000000029.774446 -3.197917
Ar -28.028284 -1000000010.330903 45.250010
Ar 1499999995.100325 999999994.059522 5.769874
Ar 1500000046.322737 -999999989.887120 9.119514
Ar 3000000004.751235 1000000000.734851 -26.740874
Ar 2999999987.312924 -999999995.747532 17.583357
Ar 10.672647 18.294723 11.042232
Ar 1500000011.022128 5.774263 18.236146
Ar 3000000008.259372 9.164907 12.559903
Ar 4500000007.132504 19.503430 21.409815
Ar 64.781585 999999974.890823 -25.944208
Ar -4.890180 -999999983.270917 33.821896
Ar 1500000017.241091 999999959.009192 4.225588
Ar 1500000031.951971 -999999979.589267 39.340301
Ar 3000000000.162395 1000000006.541320 15.099869
Ar 3000000017.159800 -999999983.016084 13.540316
26
Step 160 (scaled positions)
Ar 4.266744 15.080581 7.131472
Ar 949999946.581440 24.236295 -21.122552
Ar -949999953.365750 21.905423 -12.140044
Ar -5.469754 6.092175 -2.015204
Ar 949999968.869994 22.142510 31.079002
Ar -949999999.544454 -3.553948 -15.599928
Ar -3.401608 4.627435 7.965830
Ar 1500000002.354055 4.931941 0.711865
Ar 2999999992.706310 3.715133 -1.465421
Ar 4499999994.677620 1.845602 2.576430
Ar 39.333206 1000000031.359460 -3.862592
Ar -30.104697 -1000000011.408587 47.793394
Ar 1499999994.549396 999999993.279191 5.694219
Ar 1500000049.146106 -999999989.632603 9.189855
Ar 3000000004.854229 1000000000.393511 -28.960804
Ar 2999999986.259156 -999999995.856380 18.298042
Ar 10.769389 19.032710 10.998442
Ar 1500000011.144541 5.684025 18.671244
Ar 3000000008.198832 9.299217 12.619101
Ar 4500000007.002476 20.323884 22.059542
Ar 68.475803 999999972.752518 -28.429397
Ar -5.811310 -999999982.631762 35.295140
Ar 1500000017.791821 999999955.819242 3.743272
Ar 1500000033.494845 -999999978.684601 41.259297
Ar 2999999999.567293 1000000006.502277 15.328950
Ar 3000000017.692263 -999999982.363102 13.666879
26
Step 170 (scaled positions)
Ar 4.092712 15.256307 7.576137
Ar 949999942.826286 25.039824 -22.463044
Ar -949999950.868083 22.611484 -12.907638
Ar -6.113320 6.275852 -2.371246
Ar 949999966.613001 23.302755 32.940142
Ar -949999999.877973 -4.037064 -16.653078
Ar -3.830995 4.602153 8.218694
Ar 1500000002.303329 4.872862 0.336536
Ar 2999999992.056336 3.580475 -1.975995
Ar 4499999994.145267 1.593441 2.312737
Ar 41.568464 1000000032.944474 -4.527268
Ar -32.181111 -1000000012.486271 50.336778
Ar 1499999993.998468 999999992.498859 5.618565
Ar 1500000051.969476 -999999989.378085 9.260195
Ar 3000000004.957225 1000000000.052172 -31.180735
Ar 2999999985.205388 -999999995.965227 19.012727
Ar 10.865925 19.770577 10.954522
Ar 1500000011.266954 5.593788 19.106343
Ar 3000000008.138291 9.433527 12.678299
Ar 4500000006.872446 21.144339 22.709268
Ar 72.170022 999999970.614213 -30.914585
Ar -6.732439 -999999981.992606 36.768383
Ar 1500000018.342549 999999952.629293 3.260955
Ar 1500000035.037719 -999999977.779936 43.178294
Ar 2999999998.972191 1000000006.463233 15.558030
Ar 3000000018.224726 -999999981.710120 13.793442
26
Step 180 (scaled positions)
Ar 3.918680 15.432034 8.020803
Ar 949999939.071131 25.843354 -23.803535
Ar -949999948.370416 23.317546 -13.675231
Ar -6.756887 6.459528 -2.727289
Ar 949999964.356008 24.462999 34.801282
Ar -950000000.211493 -4.520179 -17.706229
Ar -4.260381 4.576872 8.471558
Ar 1500000002.252603 4.813784 -0.038793
Ar 2999999991.406361 3.445817 -2.486569
Ar 4499999993.612916 1.341280 2.049045
Ar 43.803722 1000000034.529488 -5.191944
Ar -34.257525 -1000000013.563954 52.880162
Ar 1499999993.447539 999999991.718528 5.542910
Ar 1500000054.792845 -999999989.123568 9.330535
Ar 3000000005.060220 999999999.710832 -33.400665
Ar 2999999984.151619 -999999996.074075 19.727412
Ar 10.962462 20.508444 10.910602
Ar 1500000011.389367 5.503550 19.541441
Ar 3000000008.077751 9.567838 12.737497
Ar 4500000006.742416 21.964794 23.358994
Ar 75.864241 999999968.475909 -33.399774
Ar -7.653569 -999999981.353451 38.241627
Ar 1500000018.893278 999999949.439343 2.778638
Ar 1500000036.580593 -999999976.875271 45.097291
Ar 2999999998.377089 1000000006.424189 15.787111
Ar 3000000018.757189 -999999981.057138 13.920006
26
Step 190 (scaled positions)
Ar 3.744648 15.607760 8.465469
Ar 949999935.315977 26.646883 -25.144027
Ar -949999945.872748 24.023607 -14.442825
Ar -7.400454 6.643204 -3.083331
Ar 949999962.099015 25.623244 36.662422
Ar -950000000.545012 -5.003294 -18.759379
Ar -4.689768 4.551590 8.724423
Ar 1500000002.201876 4.754706 -0.414123
Ar 2999999990.756387 3.311158 -2.997143
Ar 4499999993.080564 1.089119 1.785352
Ar 46.038980 1000000036.114502 -5.856620
Ar -36.333938 -1000000014.641638 55.423546
Ar 1499999992.896610 999999990.938197 5.467256
Ar 1500000057.616215 -999999988.869051 9.400875
Ar 3000000005.163216 999999999.369493 -35.620595
Ar 2999999983.097851 -999999996.182923 20.442096
Ar 11.058998 21.246310 10.866683
Ar 1500000011.511781 5.413312 19.976540
Ar 3000000008.017210 9.702148 12.796695
Ar 4500000006.612388 22.785249 24.008720
Ar 79.558459 999999966.337604 -35.884962
Ar -8.574698 -999999980.714295 39.714871
Ar 1500000019.444007 999999946.249393 2.296322
Ar 1500000038.123467 -999999975.970606 47.016288
Ar 2999999997.781988 1000000006.385145 16.016191
Ar 3000000019.289652 -999999980.404156 14.046569
26
Step 200 (scaled positions)
Ar 3.570616 15.783487 8.910135
Ar 949999931.560822 27.450413 -26.484519
Ar -949999943.375081 24.729668 -15.210419
Ar -8.044021 6.826881 -3.439374
Ar 949999959.842021 26.783488 38.523562
Ar -950000000.878531 -5.486409 -19.812530
Ar -5.119155 4.526309 8.977287
Ar 1500000002.151150 4.695627 -0.789452
Ar 2999999990.106412 3.176500 -3.507716
Ar 4499999992.548212 0.836958 1.521660
Ar 48.274238 1000000037.699516 -6.521296
Ar -38.410352 -1000000015.719322 57.966930
Ar 1499999992.345681 999999990.157865 5.391601
Ar 1500000060.439584 -999999988.614534 9.471215
Ar 3000000005.266211 999999999.028154 -37.840525
Ar 2999999982.044083 -999999996.291770 21.156781
Ar 11.155534 21.984177 10.822763
Ar 1500000011.634194 5.323074 20.411638
Ar 3000000007.956670 9.836458 12.855894
Ar 4500000006.482358 23.605703 24.658446
Ar 83.252678 999999964.199299 -38.370151
Ar -9.495827 -999999980.075140 41.188114
Ar 1500000019.994736 999999943.059444 1.814005
Ar 1500000039.666342 -999999975.065940 48.935284
Ar 2999999997.186886 1000000006.346102 16.245271
Ar 3000000019.822115 -999999979.751175 14.173132
26
Step 210 (scaled positions)
Ar 3.396584 15.959213 9.354801
Ar 949999927.805668 28.253943 -27.825010
Ar -949999940.877414 25.435729 -15.978013
Ar -8.687588 7.010557 -3.795416
Ar 949999957.585028 27.943733 40.384702
Ar -950000001.212050 -5.969524 -20.865680
Ar -5.548541 4.501027 9.230151
Ar 1500000002.100424 4.636549 -1.164781
Ar 2999999989.456438 3.041842 -4.018290
Ar 4499999992.015861 0.584797 1.257967
Ar 50.509496 1000000039.284530 -7.185972
Ar -40.486765 -1000000016.797006 60.510314
Ar 1499999991.794753 999999989.377534 5.315946
Ar 1500000063.262953 -999999988.360016 9.541555
Ar 3000000005.369206 999999998.686814 -40.060456
Ar 2999999980.990315 -999999996.400618 21.871466
Ar 11.252070 22.722044 10.778843
Ar 1500000011.756607 5.232836 20.846736
Ar 3000000007.896129 9.970768 12.915092
Ar 4500000006.352328 24.426158 25.308173
Ar 86.946896 999999962.060994 -40.855339
Ar -10.416957 -999999979.435985 42.661358
Ar 1500000020.545465 999999939.869494 1.331689
Ar 1500000041.209216 -999999974.161275 50.854281
Ar 2999999996.591784 1000000006.307058 16.474352
Ar 3000000020.354578 -999999979.098193 14.299695
26
Step 220 (scaled positions)
Ar 3.222551 16.134940 9.799467
Ar 949999924.050513 29.057472 -29.165502
Ar -949999938.379746 26.141791 -16.745607
Ar -9.331155 7.194233 -4.151459
Ar 949999955.328035 29.103977 42.245842
Ar -950000001.545570 -6.452640 -21.918831
Ar -5.977928 4.475746 9.483015
Ar 1500000002.049698 4.577470 -1.540111
Ar 2999999988.806463 2.907183 -4.528864
Ar 4499999991.483508 0.332636 0.994275
Ar 52.744754 1000000040.869544 -7.850648
Ar -42.563179 -1000000017.874690 63.053698
Ar 1499999991.243824 999999988.597202 5.240292
Ar 1500000066.086323 -999999988.105499 9.611895
Ar 3000000005.472202 999999998.345475 -42.280386
Ar 2999999979.936547 -999999996.509466 22.586151
Ar 11.348607 23.459911 10.734923
Ar 1500000011.879020 5.142599 21.281835
Ar 3000000007.835589 10.105078 12.974290
Ar 4500000006.222300 25.246613 25.957899
Ar 90.641115 999999959.922689 -43.340528
Ar -11.338086 -999999978.796829 44.134601
Ar 1500000021.096194 999999936.679544 0.849372
Ar 1500000042.752090 -999999973.256610 52.773278
Ar 2999999995.996682 1000000006.268014 16.703432
Ar 3000000020.887041 -999999978.445211 14.426258
26
Step 230 (scaled positions)
Ar 3.048519 16.310666 10.244132
Ar 949999920.295359 29.861002 -30.505994
Ar -949999935.882079 26.847852 -17.513200
Ar -9.974722 7.377910 -4.507501
Ar 949999953.071042 30.264222 44.106982
Ar -950000001.879089 -6.935755 -22.971981
Ar -6.407315 4.450464 9.735879
Ar 1500000001.998972 4.518392 -1.915440
Ar 2999999988.156489 2.772525 -5.039438
Ar 4499999990.951157 0.080475 0.730582
Ar 54.980012 1000000042.454558 -8.515324
Ar -44.639592 -1000000018.952373 65.597082
Ar 1499999990.692895 999999987.816871 5.164637
Ar 1500000068.909692 -999999987.850982 9.682235
Ar 3000000005.575197 999999998.004135 -44.500316
Ar 2999999978.882779 -999999996.618313 23.300835
Ar 11.445143 24.197777 10.691003
Ar 1500000012.001433 5.052361 21.716933
Ar 3000000007.775048 10.239388 13.033488
Ar 4500000006.092270 26.067067 26.607625
Ar 94.335334 999999957.784384 -45.825717
Ar -12.259216 -999999978.157674 45.607845
Ar 1500000021.646923 999999933.489595 0.367055
Ar 1500000044.294964 -999999972.351945 54.692275
Ar 2999999995.401580 1000000006.228970 16.932512
Ar 3000000021.419504 -999999977.792229 14.552822
26
Step 240 (scaled positions)
Ar 2.874487 16.486393 10.688798
Ar 949999916.540204 30.664531 -31.846485
Ar -949999933.384412 27.553913 -18.280794
Ar -10.618288 7.561586 -4.863544
Ar 949999950.814049 31.424466 45.968122
Ar -950000002.212608 -7.418870 -24.025132
Ar -6.836701 4.425183 9.988744
Ar 1500000001.948246 4.459313 -2.290770
Ar 2999999987.506514 2.637867 -5.550012
Ar 4499999990.418804 -0.171686 0.466890
Ar 57.215270 1000000044.039572 -9.180000
Ar -46.716006 -1000000020.030057 68.140466
Ar 1499999990.141966 999999987.036540 5.088982
Ar 1500000071.733061 -999999987.596465 9.752575
Ar 3000000005.678193 999999997.662796 -46.720246
Ar 2999999977.829010 -999999996.727161 24.015520
Ar 11.541679 24.935644 10.647084
Ar 1500000012.123847 4.962123 22.152032
Ar 3000000007.714508 10.373698 13.092687
Ar 4500000005.962241 26.887522 27.257351
Ar 98.029552 999999955.646080 -48.310905
Ar -13.180345 -999999977.518518 47.081088
Ar 1500000022.197652 999999930.299645 -0.115261
Ar 1500000045.837838 -999999971.447280 56.611271
Ar 2999999994.806479 1000000006.189927 17.161593
Ar 3000000021.951967 -999999977.139247 14.679385
26
Step 250 (scaled positions)
Ar 2.700455 16.662119 11.133464
Ar 949999912.785050 31.468061 -33.186977
Ar -949999930.886744 28.259974 -19.048388
Ar -11.261855 7.745262 -5.219586
Ar 949999948.557055 32.584711 47.829262
Ar -950000002.546128 -7.901985 -25.078282
Ar -7.266088 4.399901 10.241608
Ar 1500000001.897520 4.400235 -2.666099
Ar 2999999986.856540 2.503208 -6.060586
Ar 4499999989.886453 -0.423847 0.203197
Ar 59.450528 1000000045.624586 -9.844675
Ar -48.792419 -1000000021.107741 70.683851
Ar 1499999989.591038 999999986.256208 5.013328
Ar 1500000074.556430 -999999987.341947 9.822916
Ar 3000000005.781188 999999997.321456 -48.940177
Ar 2999999976.775242 -999999996.836009 24.730205
Ar 11.638216 25.673511 10.603164
Ar 1500000012.246260 4.871885 22.587130
Ar 3000000007.653967 10.508008 13.151885
Ar 4500000005.832211 27.707977 27.907077
Ar 101.723771 999999953.507775 -50.796094
Ar -14.101475 -999999976.879363 48.554332
Ar 1500000022.748381 999999927.109695 -0.597578
Ar 1500000047.380712 -999999970.542614 58.530268
Ar 2999999994.211377 1000000006.150883 17.390673
Ar 3000000022.484430 -999999976.486266 14.805948
26
Step 260 (scaled positions)
Ar 2.526423 16.837846 11.578130
Ar 949999909.029895 32.271590 -34.527469
Ar -949999928.389077 28.966036 -19.815982
Ar -11.905422 7.928939 -5.575629
Ar 949999946.300062 33.744955 49.690402
Ar -950000002.879647 -8.385101 -26.131433
Ar -7.695475 4.374620 10.494472
Ar 1500000001.846794 4.341156 -3.041428
Ar 2999999986.206565 2.368550 -6.571160
Ar 4499999989.354100 -0.676008 -0.060495
Ar 61.685786 1000000047.209600 -10.509351
Ar -50.868833 -1000000022.185425 73.227235
Ar 1499999989.040109 999999985.475877 4.937673
Ar 1500000077.379800 -999999987.087430 9.893256
Ar 3000000005.884183 999999996.980117 -51.160107
Ar 2999999975.721474 -999999996.944856 25.444890
Ar 11.734752 26.411377 10.559244
Ar 1500000012.368673 4.781647 23.022229
Ar 3000000007.593427 10.642318 13.211083
Ar 4500000005.702182 28.528432 28.556803
Ar 105.417990 999999951.369470 -53.281282
Ar -15.022604 -999999976.240208 50.027575
Ar 1500000023.299109 999999923.919746 -1.079894
Ar 1500000048.923587 -999999969.637949 60.449265
Ar 2999999993.616275 1000000006.111839 17.619754
Ar 3000000023.016893 -999999975.833284 14.932511
26