10
Step 0 (scaled positions)
Ar 7.095036 12.250214 0.006335
Ar 5.155399 2.481361 1.595260
Ar 3.184713 5.893350 6.773990
Ar 9.156523 7.136349 11.656836
Ar 3.474547 14.960558 0.458123
Ar 11.409621 7.094448 9.497660
Ar 2.764814 3.482307 13.320967
Ar 16.486877 5.365983 11.803101
Ar 14.915498 15.217148 1.438789
Ar 0.304100 2.785613 15.239468
10
Step 10 (scaled positions)
Ar 7.040229 12.122810 0.051083
Ar 5.236931 2.310380 1.828103
Ar 3.322318 5.993734 6.965782
Ar 8.784572 7.135272 11.758510
Ar 3.419371 15.061006 0.375775
Ar 11.562179 6.986979 9.166090
Ar 6.558489 4.593829 10.166899
Ar 16.506676 5.666088 11.965189
Ar 14.865055 15.081775 1.347872
Ar -3.348692 1.715458 18.165228
10
Step 20 (scaled positions)
Ar 6.973637 12.005330 0.096979
Ar 5.317980 2.140523 2.062579
Ar 3.467826 6.090357 7.163184
Ar 8.367370 7.147661 11.921553
Ar 3.376298 15.151649 0.292332
Ar 11.874950 6.947883 8.852432
Ar 10.233612 5.624943 6.928734
Ar 16.522230 5.967279 12.125179
Ar 14.814294 14.946282 1.256901
Ar -7.001067 0.645424 21.090657
10
Step 30 (scaled positions)
Ar 6.896813 11.897190 0.143504
Ar 5.398917 1.971925 2.298706
Ar 3.617573 6.185734 7.360972
Ar 7.964260 7.161763 12.073944
Ar 3.343780 15.233075 0.208308
Ar 12.971124 7.490878 9.250616
Ar 13.112141 6.071118 2.990685
Ar 16.532753 6.269591 12.281825
Ar 14.763209 14.810668 1.165883
Ar -10.653442 -0.424611 24.016086
10
Step 40 (scaled positions)
Ar 6.811010 11.797894 0.190247
Ar 5.479603 1.804357 2.536029
Ar 3.769261 6.280495 7.559206
Ar 7.564430 7.175681 12.221735
Ar 3.320565 15.305777 0.124109
Ar 14.080839 8.037387 9.672169
Ar 15.981944 6.509999 -0.959222
Ar 16.533493 6.575507 12.429924
Ar 14.711801 14.674881 1.074819
Ar -14.305816 -1.494646 26.941515
10
Step 50 (scaled positions)
Ar 6.717232 11.707050 0.236873
Ar 5.559954 1.637663 2.774335
Ar 3.923372 6.374876 7.759051
Ar 7.163808 7.189259 12.366379
Ar 3.305651 15.370145 0.040062
Ar 15.185719 8.590018 10.085714
Ar 18.851729 6.949049 -4.909037
Ar 16.537775 6.875134 12.586513
Ar 14.660080 14.538819 0.983696
Ar -17.958191 -2.564681 29.866944
10
Step 60 (scaled positions)
Ar 6.616279 11.624367 0.283100
Ar 5.640027 1.471772 3.013486
Ar 4.080673 6.469190 7.962244
Ar 6.760547 7.202144 12.506743
Ar 3.298236 15.426467 -0.043555
Ar 16.195241 9.286360 10.298500
Ar 21.721514 7.388099 -8.858852
Ar 16.637145 7.031006 12.943949
Ar 14.608035 14.402642 0.892542
Ar -21.610566 -3.634716 32.792373
10
Step 70 (scaled positions)
Ar 6.508792 11.549645 0.328680
Ar 5.719872 1.306612 3.253363
Ar 4.242070 6.563840 8.171371
Ar 6.353417 7.213963 12.640448
Ar 3.297675 15.474940 -0.126500
Ar 17.168689 10.077467 10.391699
Ar 24.591299 7.827149 -12.808667
Ar 16.772588 7.092113 13.420971
Ar 14.555670 14.266353 0.801364
Ar -25.262941 -4.704751 35.717802
10
Step 80 (scaled positions)
Ar 6.395198 11.482741 0.373378
Ar 5.799532 1.142108 3.493854
Ar 4.408389 6.659306 8.390091
Ar 5.941550 7.224308 12.763946
Ar 3.303449 15.515672 -0.208549
Ar 18.140393 10.859695 10.493635
Ar 27.461083 8.266199 -16.758482
Ar 16.909775 7.162099 13.889256
Ar 14.503077 14.129988 0.710172
Ar -28.915316 -5.774786 38.643231
10
Step 90 (scaled positions)
Ar 6.275697 11.423556 0.416963
Ar 5.879044 0.978187 3.734864
Ar 4.579895 6.756072 8.622962
Ar 5.524644 7.232772 12.872773
Ar 3.315139 15.548688 -0.289486
Ar 19.109986 11.634918 10.602112
Ar 30.330868 8.705250 -20.708297
Ar 17.049072 7.239091 14.351000
Ar 14.450474 13.993619 0.618979
Ar -32.567690 -6.844820 41.568660
10
Step 100 (scaled positions)
Ar 6.150617 11.372143 0.459218
Ar 5.958441 0.814777 3.976306
Ar 4.755595 6.854413 8.874094
Ar 5.103659 7.239149 12.962907
Ar 3.332408 15.573933 -0.369092
Ar 20.078480 12.407671 10.712723
Ar 33.200653 9.144300 -24.658112
Ar 17.189470 7.318552 14.810611
Ar 14.397871 13.857250 0.527786
Ar -36.220065 -7.914855 44.494089
10
Step 110 (scaled positions)
Ar 6.020230 11.328644 0.499913
Ar 6.037750 0.651807 4.218106
Ar 4.933038 6.954070 9.143410
Ar 4.681019 7.243771 13.034499
Ar 3.354985 15.591263 -0.447137
Ar 21.046495 13.179556 10.824039
Ar 36.070438 9.583350 -28.607928
Ar 17.330345 7.398881 15.269517
Ar 14.345269 13.720880 0.436594
Ar -39.872440 -8.984890 47.419518
10
Step 120 (scaled positions)
Ar 5.884750 11.293292 0.538797
Ar 6.116994 0.489212 4.460199
Ar 5.110324 7.054080 9.421565
Ar 4.258602 7.247665 13.096960
Ar 3.382654 15.600446 -0.523372
Ar 22.014327 13.951149 10.935582
Ar 38.940223 10.022400 -32.557743
Ar 17.471404 7.479502 15.728195
Ar 14.292666 13.584511 0.345401
Ar -43.524815 -10.054925 50.344947
10
Step 130 (scaled positions)
Ar 5.744345 11.266421 0.575588
Ar 6.196188 0.326933 4.702532
Ar 5.289304 7.153523 9.693878
Ar 3.834540 7.251808 13.165022
Ar 3.415247 15.601148 -0.597514
Ar 22.982150 14.722727 11.047137
Ar 41.810008 10.461451 -36.507558
Ar 17.612473 7.560138 16.186862
Ar 14.240064 13.448142 0.254208
Ar -47.177189 -11.124960 53.270376
10
Step 140 (scaled positions)
Ar 5.599146 11.248481 0.609960
Ar 6.275361 0.164809 4.944979
Ar 5.471102 7.252569 9.958767
Ar 3.407682 7.256194 13.240395
Ar 3.452636 15.592919 -0.669237
Ar 23.949972 15.494305 11.158692
Ar 44.679793 10.900501 -40.457373
Ar 17.753541 7.640774 16.645528
Ar 14.187461 13.311773 0.163015
Ar -50.829564 -12.194995 56.195805
10
Step 150 (scaled positions)
Ar 5.449248 11.240060 0.641527
Ar 6.354533 0.002685 5.187426
Ar 5.649249 7.351559 10.228695
Ar 2.984474 7.260637 13.310728
Ar 3.494724 15.575172 -0.738154
Ar 24.917794 16.265883 11.270246
Ar 47.549578 11.339551 -44.407188
Ar 17.894610 7.721410 17.104195
Ar 14.134859 13.175404 0.071822
Ar -54.481939 -13.265029 59.121234
10
Step 160 (scaled positions)
Ar 5.294724 11.241912 0.669820
Ar 6.433706 -0.159438 5.429873
Ar 5.815766 7.450135 10.511877
Ar 2.572896 7.265492 13.367807
Ar 3.541437 15.547150 -0.803799
Ar 25.885617 17.037461 11.381801
Ar 50.419363 11.778601 -48.357003
Ar 18.035678 7.802046 17.562862
Ar 14.082256 13.039035 -0.019371
Ar -58.134314 -14.335064 62.046663
10
Step 170 (scaled positions)
Ar 5.135634 11.254997 0.694264
Ar 6.512879 -0.321562 5.672320
Ar 5.967601 7.547882 10.808066
Ar 2.176001 7.271177 13.411879
Ar 3.592715 15.507896 -0.865594
Ar 26.853439 17.809038 11.493356
Ar 53.289148 12.217651 -52.306818
Ar 18.176747 7.882683 18.021528
Ar 14.029654 12.902666 -0.110563
Ar -61.786689 -15.405099 64.972092
10
Step 180 (scaled positions)
Ar 4.972044 11.280519 0.714141
Ar 6.592052 -0.483686 5.914767
Ar 6.105920 7.644653 11.113656
Ar 1.792621 7.277839 13.446550
Ar 3.648495 15.456206 -0.922821
Ar 27.821262 18.580616 11.604911
Ar 56.158933 12.656702 -56.256633
Ar 18.317815 7.963319 18.480195
Ar 13.977051 12.766297 -0.201756
Ar -65.439063 -16.475134 67.897521
10
Step 190 (scaled positions)
Ar 4.804058 11.319959 0.728553
Ar 6.671225 -0.645810 6.157214
Ar 6.233575 7.740524 11.425107
Ar 1.419906 7.285400 13.475361
Ar 3.708670 15.390598 -0.974584
Ar 28.789084 19.352194 11.716465
Ar 59.028718 13.095752 -60.206449
Ar 18.458884 8.043955 18.938862
Ar 13.924449 12.629928 -0.292949
Ar -69.091438 -17.545169 70.822950
10
Step 200 (scaled positions)
Ar 4.631879 11.375045 0.736408
Ar 6.750397 -0.807933 6.399661
Ar 6.353502 7.835669 11.739909
Ar 1.054918 7.293687 13.500820
Ar 3.773039 15.309342 -1.019790
Ar 29.756906 20.123772 11.828020
Ar 61.898502 13.534802 -64.156264
Ar 18.599952 8.124591 19.397528
Ar 13.871846 12.493559 -0.384142
Ar -72.743813 -18.615204 73.748379
10
Step 210 (scaled positions)
Ar 4.455934 11.447472 0.736513
Ar 6.829570 -0.970057 6.642108
Ar 6.468103 7.930273 12.056517
Ar 0.695257 7.302516 13.524474
Ar 3.841173 15.210747 -1.057246
Ar 30.724729 20.895350 11.939575
Ar 64.768287 13.973852 -68.106079
Ar 18.741021 8.205227 19.856195
Ar 13.819243 12.357190 -0.475335
Ar -76.396188 -19.685238 76.673808
10
Step 220 (scaled positions)
Ar 4.277073 11.537741 0.728114
Ar 6.908743 -1.132181 6.884556
Ar 6.579135 8.024490 12.374053
Ar 0.339164 7.311731 13.547198
Ar 3.912223 15.094309 -1.086197
Ar 31.692551 21.666928 12.051130
Ar 67.638072 14.412903 -72.055894
Ar 18.882089 8.285863 20.314862
Ar 13.766641 12.220821 -0.566527
Ar -80.048562 -20.755273 79.599237
10
Step 230 (scaled positions)
Ar 4.096760 11.641239 0.713018
Ar 6.987916 -1.294305 7.127003
Ar 6.687809 8.118439 12.692045
Ar -0.014571 7.321214 13.569468
Ar 3.984725 14.964643 -1.108453
Ar 32.660374 22.438506 12.162684
Ar 70.507857 14.851953 -76.005709
Ar 19.023158 8.366500 20.773528
Ar 13.714038 12.084452 -0.657720
Ar -83.700937 -21.825308 82.524666
10
Step 240 (scaled positions)
Ar 3.916274 11.738217 0.701712
Ar 7.067089 -1.456428 7.369450
Ar 6.794933 8.212204 13.010246
Ar -0.366755 7.330881 13.591528
Ar 4.057401 14.841495 -1.134498
Ar 33.628196 23.210084 12.274239
Ar 73.377642 15.291003 -79.955524
Ar 19.164226 8.447136 21.232195
Ar 13.661436 11.948083 -0.748913
Ar -87.353312 -22.895343 85.450095
10
Step 250 (scaled positions)
Ar 3.733068 11.788848 0.718168
Ar 7.146261 -1.618552 7.611897
Ar 6.901035 8.305843 13.328534
Ar -0.717917 7.340674 13.613502
Ar 4.132796 14.764696 -1.188304
Ar 34.596019 23.981662 12.385794
Ar 76.247427 15.730053 -83.905339
Ar 19.305295 8.527772 21.690862
Ar 13.608833 11.811714 -0.840106
Ar -91.005687 -23.965378 88.375524
10
Step 260 (scaled positions)
Ar 3.541772 11.777528 0.774185
Ar 7.225434 -1.780676 7.854344
Ar 7.006458 8.399397 13.646849
Ar -1.068401 7.350552 13.635448
Ar 4.216281 14.749847 -1.281672
Ar 35.563841 24.753240 12.497349
Ar 79.117212 16.169103 -87.855154
Ar 19.446363 8.608408 22.149528
Ar 13.556231 11.675345 -0.931299
Ar -94.658062 -25.035413 91.300953
10
Step 270 (scaled positions)
Ar 3.345034 11.739374 0.848404
Ar 7.304607 -1.942800 8.096791
Ar 7.111437 8.492893 13.965165
Ar -1.418440 7.360488 13.657393
Ar 4.305208 14.761832 -1.393242
Ar 36.531663 25.524818 12.608903
Ar 81.986997 16.608154 -91.804969
Ar 19.587432 8.689044 22.608195
Ar 13.503628 11.538976 -1.022491
Ar -98.310436 -26.105448 94.226382
10
Step 280 (scaled positions)
Ar 3.149800 11.705110 0.919592
Ar 7.383780 -2.104924 8.339238
Ar 7.216312 8.586375 14.283480
Ar -1.768376 7.370438 13.679339
Ar 4.392632 14.769928 -1.501780
Ar 37.499486 26.296396 12.720458
Ar 84.856782 17.047204 -95.754785
Ar 19.728500 8.769680 23.066862
Ar 13.451026 11.402607 -1.113684
Ar -101.962811 -27.175482 97.151811
10
Step 290 (scaled positions)
Ar 2.960149 11.684501 0.979965
Ar 7.462953 -2.267047 8.581685
Ar 7.321188 8.679858 14.601794
Ar -2.118312 7.380387 13.701286
Ar 4.474472 14.764368 -1.599505
Ar 38.467308 27.067973 12.832013
Ar 87.726567 17.486254 -99.704600
Ar 19.869569 8.850317 23.525528
Ar 13.398423 11.266238 -1.204877
Ar -105.615186 -28.245517 100.077240
10
Step 300 (scaled positions)
Ar 2.777555 11.678276 1.028300
Ar 7.542125 -2.429171 8.824132
Ar 7.426063 8.773340 14.920108
Ar -2.468248 7.390337 13.723233
Ar 4.549255 14.744424 -1.685191
Ar 39.435131 27.839551 12.943568
Ar 90.596352 17.925304 -103.654415
Ar 20.010637 8.930953 23.984195
Ar 13.345821 11.129869 -1.296070
Ar -109.267561 -29.315552 103.002669
10
Step 310 (scaled positions)
Ar 2.602333 11.684852 1.065321
Ar 7.621298 -2.591295 9.066579
Ar 7.530938 8.866823 15.238423
Ar -2.818184 7.400286 13.745180
Ar 4.616666 14.711679 -1.759562
Ar 40.402953 28.611129 13.055122
Ar 93.466136 18.364355 -107.604230
Ar 20.151706 9.011589 24.442862
Ar 13.293218 10.993500 -1.387263
Ar -112.919935 -30.385587 105.928098
10
Step 320 (scaled positions)
Ar 2.434378 11.702383 1.092130
Ar 7.700471 -2.753419 9.309027
Ar 7.635814 8.960306 15.556737
Ar -3.168120 7.410236 13.767127
Ar 4.676810 14.667980 -1.823722
Ar 41.370776 29.382707 13.166677
Ar 96.335921 18.803405 -111.554045
Ar 20.292774 9.092225 24.901528
Ar 13.240615 10.857130 -1.478456
Ar -116.572310 -31.455622 108.853527
10
Step 330 (scaled positions)
Ar 2.273468 11.729256 1.109764
Ar 7.779644 -2.915542 9.551474
Ar 7.740689 9.053788 15.875051
Ar -3.518056 7.420185 13.789074
Ar 4.729909 14.614938 -1.878707
Ar 42.338598 30.154285 13.278232
Ar 99.205706 19.242455 -115.503860
Ar 20.433843 9.172861 25.360195
Ar 13.188013 10.720761 -1.569648
Ar -120.224685 -32.525657 111.778956
10
Step 340 (scaled positions)
Ar 2.119378 11.764158 1.119091
Ar 7.858817 -3.077666 9.793921
Ar 7.845564 9.147271 16.193366
Ar -3.867992 7.430135 13.811021
Ar 4.776189 14.553867 -1.925385
Ar 43.306420 30.925863 13.389787
Ar 102.075491 19.681505 -119.453675
Ar 20.574911 9.253497 25.818862
Ar 13.135410 10.584392 -1.660841
Ar -123.877060 -33.595691 114.704385
10
Step 350 (scaled positions)
Ar 1.971921 11.806037 1.120811
Ar 7.937989 -3.239790 10.036368
Ar 7.950440 9.240753 16.511680
Ar -4.217928 7.440085 13.832968
Ar 4.815835 14.485819 -1.964456
Ar 44.274243 31.697441 13.501341
Ar 104.945276 20.120555 -123.403490
Ar 20.715980 9.334134 26.277528
Ar 13.082808 10.448023 -1.752034
Ar -127.529435 -34.665726 117.629814
10
Step 360 (scaled positions)
Ar 1.830964 11.854050 1.115474
Ar 8.017162 -3.401914 10.278815
Ar 8.055315 9.334236 16.829994
Ar -4.567863 7.450034 13.854915
Ar 4.848981 14.411638 -1.996469
Ar 45.242065 32.469019 13.612896
Ar 107.815061 20.559606 -127.353305
Ar 20.857048 9.414770 26.736195
Ar 13.030205 10.311654 -1.843227
Ar -131.181809 -35.735761 120.555243
10
Step 370 (scaled positions)
Ar 1.696433 11.907514 1.103508
Ar 8.096335 -3.564037 10.521262
Ar 8.160190 9.427718 17.148309
Ar -4.917799 7.459984 13.876862
Ar 4.875702 14.332005 -2.021854
Ar 46.209888 33.240597 13.724451
Ar 110.684846 20.998656 -131.303121
Ar 20.998117 9.495406 27.194862
Ar 12.977603 10.175285 -1.934420
Ar -134.834184 -36.805796 123.480672
10
Step 380 (scaled positions)
Ar 1.568312 11.965870 1.085238
Ar 8.175508 -3.726161 10.763709
Ar 8.265066 9.521201 17.466623
Ar -5.267735 7.469933 13.898809
Ar 4.896012 14.247480 -2.040935
Ar 47.177710 34.012175 13.836006
Ar 113.554631 21.437706 -135.252936
Ar 21.139185 9.576042 27.653529
Ar 12.925000 10.038916 -2.025612
Ar -138.486559 -37.875831 126.406101
10
Step 390 (scaled positions)
Ar 1.446647 12.028656 1.060901
Ar 8.254681 -3.888285 11.006156
Ar 8.369941 9.614683 17.784937
Ar -5.617671 7.479883 13.920756
Ar 4.909866 14.158525 -2.053949
Ar 48.145533 34.783753 13.947560
Ar 116.424416 21.876756 -139.202751
Ar 21.280254 9.656678 28.112195
Ar 12.872398 9.902547 -2.116805
Ar -142.138934 -38.945866 129.331530
10
Step 400 (scaled positions)
Ar 1.331548 12.095480 1.030659
Ar 8.333853 -4.050409 11.248603
Ar 8.474816 9.708166 18.103252
Ar -5.967607 7.489832 13.942703
Ar 4.917155 14.065532 -2.061058
Ar 49.113355 35.555331 14.059115
Ar 119.294201 22.315807 -143.152566
Ar 21.421322 9.737314 28.570862
Ar 12.819795 9.766178 -2.207998
Ar -145.791309 -40.015900 132.256959
10
Step 410 (scaled positions)
Ar 1.223191 12.166009 0.994603
Ar 8.413026 -4.212532 11.491050
Ar 8.579692 9.801648 18.421566
Ar -6.317543 7.499782 13.964650
Ar 4.917701 13.968835 -2.062353
Ar 50.081177 36.326908 14.170670
Ar 122.163986 22.754857 -147.102381
Ar 21.562391 9.817950 29.029529
Ar 12.767193 9.629809 -2.299191
Ar -149.443683 -41.085935 135.182388
10
Step 420 (scaled positions)
Ar 1.121827 12.239950 0.952761
Ar 8.492199 -4.374656 11.733498
Ar 8.684567 9.895131 18.739880
Ar -6.667479 7.509732 13.986597
Ar 4.911253 13.868725 -2.057862
Ar 51.049000 37.098486 14.282225
Ar 125.033771 23.193907 -151.052196
Ar 21.703459 9.898587 29.488195
Ar 12.714590 9.493440 -2.390384
Ar -153.096058 -42.155970 138.107817
10
Step 430 (scaled positions)
Ar 1.027796 12.317040 0.905095
Ar 8.571372 -4.536780 11.975945
Ar 8.789442 9.988614 19.058194
Ar -7.017415 7.519681 14.008544
Ar 4.897474 13.765466 -2.047547
Ar 52.016822 37.870064 14.393779
Ar 127.903555 23.632957 -155.002011
Ar 21.844528 9.979223 29.946862
Ar 12.661987 9.357071 -2.481576
Ar -156.748433 -43.226005 141.033246
10
Step 440 (scaled positions)
Ar 0.941534 12.397035 0.851503
Ar 8.650545 -4.698904 12.218392
Ar 8.894318 10.082096 19.376509
Ar -7.367351 7.529631 14.030491
Ar 4.875926 13.659303 -2.031305
Ar 52.984645 38.641642 14.505334
Ar 130.773340 24.072007 -158.951826
Ar 21.985596 10.059859 30.405529
Ar 12.609385 9.220702 -2.572769
Ar -160.400808 -44.296040 143.958675
10
Step 450 (scaled positions)
Ar 0.863600 12.479697 0.791810
Ar 8.729717 -4.861027 12.460839
Ar 8.999193 10.175579 19.694823
Ar -7.717286 7.539580 14.052437
Ar 4.846048 13.550471 -2.008963
Ar 53.952467 39.413220 14.616889
Ar 133.643125 24.511058 -162.901641
Ar 22.126665 10.140495 30.864195
Ar 12.556782 9.084333 -2.663962
Ar -164.053182 -45.366075 146.884104
10
Step 460 (scaled positions)
Ar 0.794703 12.564784 0.725766
Ar 8.808890 -5.023151 12.703286
Ar 9.104068 10.269061 20.013137
Ar -8.067222 7.549530 14.074384
Ar 4.807134 13.439216 -1.980270
Ar 54.920289 40.184798 14.728444
Ar 136.512910 24.950108 -166.851457
Ar 22.267733 10.221131 31.322862
Ar 12.504180 8.947964 -2.755155
Ar -167.705557 -46.436110 149.809533
10
Step 470 (scaled positions)
Ar 0.735737 12.652026 0.653029
Ar 8.888063 -5.185275 12.945733
Ar 9.208944 10.362544 20.331452
Ar -8.417158 7.559480 14.096331
Ar 4.758290 13.325805 -1.944884
Ar 55.888112 40.956376 14.839998
Ar 139.382695 25.389158 -170.801272
Ar 22.408802 10.301767 31.781529
Ar 12.451577 8.811595 -2.846348
Ar -171.357932 -47.506144 152.734962
10
Step 480 (scaled positions)
Ar 0.687822 12.741110 0.573160
Ar 8.967236 -5.347399 13.188180
Ar 9.313819 10.456026 20.649766
Ar -8.767094 7.569429 14.118278
Ar 4.698394 13.210552 -1.902366
Ar 56.855934 41.727954 14.951553
Ar 142.252480 25.828208 -174.751087
Ar 22.549870 10.382404 32.240195
Ar 12.398975 8.675226 -2.937540
Ar -175.010307 -48.576179 155.660391
10
Step 490 (scaled positions)
Ar 0.652363 12.831637 0.485611
Ar 9.046409 -5.509523 13.430627
Ar 9.418694 10.549509 20.968080
Ar -9.117030 7.579379 14.140225
Ar 4.626043 13.093856 -1.852168
Ar 57.823757 42.499532 15.063108
Ar 145.122265 26.267259 -178.700902
Ar 22.690939 10.463040 32.698862
Ar 12.346372 8.538857 -3.028733
Ar -178.662682 -49.646214 158.585820
10
Step 500 (scaled positions)
Ar 0.631061 12.923082 0.389742
Ar 9.125581 -5.671646 13.673074
Ar 9.523570 10.642991 21.286395
Ar -9.466966 7.589328 14.162172
Ar 4.539533 12.976243 -1.793650
Ar 58.791579 43.271110 15.174663
Ar 147.992050 26.706309 -182.650717
Ar 22.832007 10.543676 33.157529
Ar 12.293770 8.402488 -3.119926
Ar -182.315056 -50.716249 161.511249
10
Step 510 (scaled positions)
Ar 0.625833 13.014725 0.284906
Ar 9.204754 -5.833770 13.915521
Ar 9.628445 10.736474 21.604709
Ar -9.816902 7.599278 14.184119
Ar 4.436951 12.858431 -1.726164
Ar 59.759402 44.042688 15.286217
Ar 150.861835 27.145359 -186.600532
Ar 22.973076 10.624312 33.616195
Ar 12.241167 8.266119 -3.211119
Ar -185.967431 -51.786284 164.436678
10
Step 520 (scaled positions)
Ar 0.638255 13.105631 0.170764
Ar 9.283927 -5.995894 14.157969
Ar 9.733320 10.829956 21.923023
Ar -10.166838 7.609227 14.206066
Ar 4.316718 12.741356 -1.649373
Ar 60.727224 44.814266 15.397772
Ar 153.731620 27.584409 -190.550347
Ar 23.114144 10.704948 34.074862
Ar 12.188565 8.129750 -3.302312
Ar -189.619806 -52.856319 167.362107
10
Step 530 (scaled positions)
Ar 0.667452 13.194904 0.048305
Ar 9.363100 -6.158018 14.400416
Ar 9.838196 10.923439 22.241338
Ar -10.516774 7.619177 14.228013
Ar 4.179711 12.625914 -1.564265
Ar 61.695046 45.585843 15.509327
Ar 156.601405 28.023459 -194.500162
Ar 23.255213 10.785584 34.533529
Ar 12.135962 7.993380 -3.393505
Ar -193.272181 -53.926353 170.287536
10
Step 540 (scaled positions)
Ar 0.703356 13.283291 -0.077347
Ar 9.442273 -6.320141 14.642863
Ar 9.943071 11.016921 22.559652
Ar -10.866710 7.629127 14.249960
Ar 4.035995 12.511358 -1.475963
Ar 62.662869 46.357421 15.620882
Ar 159.471189 28.462510 -198.449977
Ar 23.396281 10.866221 34.992195
Ar 12.083359 7.857011 -3.484697
Ar -196.924555 -54.996388 173.212965
10
Step 550 (scaled positions)
Ar 0.714238 13.378029 -0.192812
Ar 9.521445 -6.482265 14.885310
Ar 10.047946 11.110404 22.877966
Ar -11.216645 7.639076 14.271907
Ar 3.917303 12.390452 -1.397849
Ar 63.630691 47.128999 15.732436
Ar 162.340974 28.901560 -202.399793
Ar 23.537350 10.946857 35.450862
Ar 12.030757 7.720642 -3.575890
Ar -200.576930 -56.066423 176.138394
10
Step 560 (scaled positions)
Ar 0.660565 13.492981 -0.284167
Ar 9.600618 -6.644389 15.127757
Ar 10.152822 11.203887 23.196281
Ar -11.566581 7.649026 14.293854
Ar 3.863165 12.249331 -1.343845
Ar 64.598514 47.900577 15.843991
Ar 165.210759 29.340610 -206.349608
Ar 23.678418 11.027493 35.909529
Ar 11.978154 7.584273 -3.667083
Ar -204.229305 -57.136458 179.063823
10
Step 570 (scaled positions)
Ar 0.554370 13.627773 -0.357829
Ar 9.679791 -6.806513 15.370204
Ar 10.257697 11.297369 23.514595
Ar -11.916517 7.658975 14.315801
Ar 3.861549 12.088371 -1.307535
Ar 65.566336 48.672155 15.955546
Ar 168.080544 29.779660 -210.299423
Ar 23.819487 11.108129 36.368195
Ar 11.925552 7.447904 -3.758276
Ar -207.881680 -58.206493 181.989252
10
Step 580 (scaled positions)
Ar 0.438016 13.766858 -0.428326
Ar 9.758964 -6.968636 15.612651
Ar 10.362572 11.390852 23.832909
Ar -12.266453 7.668925 14.337748
Ar 3.870092 11.923116 -1.274388
Ar 66.534159 49.443733 16.067101
Ar 170.950329 30.218711 -214.249238
Ar 23.960555 11.188765 36.826862
Ar 11.872949 7.311535 -3.849469
Ar -211.534055 -59.276528 184.914681
10
Step 590 (scaled positions)
Ar 0.333378 13.899532 -0.501645
Ar 9.838137 -7.130760 15.855098
Ar 10.467448 11.484334 24.151223
Ar -12.616389 7.678874 14.359695
Ar 3.866920 11.764273 -1.238420
Ar 67.501981 50.215311 16.178655
Ar 173.820114 30.657761 -218.199053
Ar 24.101624 11.269401 37.285529
Ar 11.820347 7.175166 -3.940661
Ar -215.186429 -60.346562 187.840110
10
Step 600 (scaled positions)
Ar 0.245457 14.022099 -0.578446
Ar 9.917309 -7.292884 16.097545
Ar 10.572323 11.577817 24.469538
Ar -12.966325 7.688824 14.381642
Ar 3.847030 11.615538 -1.198970
Ar 68.469803 50.986889 16.290210
Ar 176.689899 31.096811 -222.148868
Ar 24.242692 11.350038 37.744196
Ar 11.767744 7.038797 -4.031854
Ar -218.838804 -61.416597 190.765539
10
Step 610 (scaled positions)
Ar 0.173614 14.133942 -0.658029
Ar 9.996482 -7.455008 16.339992
Ar 10.677198 11.671299 24.787852
Ar -13.316261 7.698774 14.403588
Ar 3.811062 11.477527 -1.156738
Ar 69.437626 51.758467 16.401765
Ar 179.559684 31.535861 -226.098683
Ar 24.383761 11.430674 38.202862
Ar 11.715142 6.902428 -4.123047
Ar -222.491179 -62.486632 193.690968
10
Step 620 (scaled positions)
Ar 0.115972 14.235434 -0.739570
Ar 10.075655 -7.617131 16.582439
Ar 10.782074 11.764782 25.106166
Ar -13.666197 7.708723 14.425535
Ar 3.760894 11.349865 -1.112547
Ar 70.405448 52.530045 16.513320
Ar 182.429469 31.974911 -230.048498
Ar 24.524829 11.511310 38.661529
Ar 11.662539 6.766059 -4.214240
Ar -226.143554 -63.556667 196.616397
10
Step 630 (scaled positions)
Ar 0.070663 14.327181 -0.822384
Ar 10.154828 -7.779255 16.824887
Ar 10.886949 11.858264 25.424481
Ar -14.016133 7.718673 14.447482
Ar 3.698392 11.231950 -1.067085
Ar 71.373271 53.301623 16.624874
Ar 185.299254 32.413962 -233.998314
Ar 24.665898 11.591946 39.120196
Ar 11.609937 6.629690 -4.305433
Ar -229.795929 -64.626702 199.541826
10
Step 640 (scaled positions)
Ar 0.036104 14.409768 -0.905930
Ar 10.234001 -7.941379 17.067334
Ar 10.991824 11.951747 25.742795
Ar -14.366068 7.728622 14.469429
Ar 3.625140 11.123193 -1.020889
Ar 72.341093 54.073201 16.736429
Ar 188.169039 32.853012 -237.948129
Ar 24.806966 11.672582 39.578862
Ar 11.557334 6.493321 -4.396625
Ar -233.448303 -65.696737 202.467255
10
Step 650 (scaled positions)
Ar 0.011018 14.483693 -0.989786
Ar 10.313173 -8.103503 17.309781
Ar 11.096700 12.045229 26.061109
Ar -14.716004 7.738572 14.491376
Ar 3.542416 11.023100 -0.974384
Ar 73.308916 54.844778 16.847984
Ar 191.038824 33.292062 -241.897944
Ar 24.948035 11.753218 40.037529
Ar 11.504731 6.356952 -4.487818
Ar -237.100678 -66.766772 205.392684
10
Step 660 (scaled positions)
Ar -0.005620 14.549346 -1.073609
Ar 10.392346 -8.265626 17.552228
Ar 11.201575 12.138712 26.379424
Ar -15.065940 7.748521 14.513323
Ar 3.451242 10.931278 -0.927912
Ar 74.276738 55.616356 16.959539
Ar 193.908608 33.731112 -245.847759
Ar 25.089103 11.833854 40.496196
Ar 11.452129 6.220583 -4.579011
Ar -240.753053 -67.836806 208.318113
10
Step 670 (scaled positions)
Ar -0.014625 14.607017 -1.157114
Ar 10.471519 -8.427750 17.794675
Ar 11.306451 12.232194 26.697738
Ar -15.415876 7.758471 14.535270
Ar 3.352437 10.847438 -0.881757
Ar 75.244560 56.387934 17.071093
Ar 196.778393 34.170163 -249.797574
Ar 25.230172 11.914491 40.954862
Ar 11.399526 6.084214 -4.670204
Ar -244.405428 -68.906841 211.243542
10
Step 680 (scaled positions)
Ar -0.016652 14.656901 -1.240052
Ar 10.550692 -8.589874 18.037122
Ar 11.411326 12.325677 27.016052
Ar -15.765812 7.768421 14.557217
Ar 3.246653 10.771385 -0.836171
Ar 76.212383 57.159512 17.182648
Ar 199.648178 34.609213 -253.747389
Ar 25.371240 11.995127 41.413529
Ar 11.346924 5.947845 -4.761397
Ar -248.057802 -69.976876 214.168971
10
Step 690 (scaled positions)
Ar -0.012227 14.699106 -1.322192
Ar 10.629865 -8.751998 18.279569
Ar 11.516201 12.419160 27.334367
Ar -16.115748 7.778370 14.579164
Ar 3.134418 10.703012 -0.791382
Ar 77.180205 57.931090 17.294203
Ar 202.517963 35.048263 -257.697204
Ar 25.512309 12.075763 41.872196
Ar 11.294321 5.811476 -4.852590
Ar -251.710177 -71.046911 217.094400
10
Step 700 (scaled positions)
Ar -0.001773 14.733656 -1.403316
Ar 10.709037 -8.914121 18.522016
Ar 11.621077 12.512642 27.652681
Ar -16.465684 7.788320 14.601111
Ar 3.016153 10.642293 -0.747608
Ar 78.148028 58.702668 17.405758
Ar 205.387748 35.487313 -261.647019
Ar 25.653377 12.156399 42.330862
Ar 11.241719 5.675107 -4.943782
Ar -255.362552 -72.116946 220.019829
10
Step 710 (scaled positions)
Ar 0.014370 14.760494 -1.483205
Ar 10.788210 -9.076245 18.764463
Ar 11.725952 12.606125 27.970995
Ar -16.815620 7.798269 14.623058
Ar 2.892199 10.589286 -0.705070
Ar 79.115850 59.474246 17.517312
Ar 208.257533 35.926363 -265.596834
Ar 25.794446 12.237035 42.789529
Ar 11.189116 5.538738 -5.034975
Ar -259.014927 -73.186981 222.945258
10
Step 720 (scaled positions)
Ar 0.035931 14.779478 -1.561628
Ar 10.867383 -9.238369 19.006910
Ar 11.830827 12.699607 28.289310
Ar -17.165556 7.808219 14.645005
Ar 2.762826 10.544133 -0.663998
Ar 80.083672 60.245824 17.628867
Ar 211.127318 36.365414 -269.546650
Ar 25.935514 12.317671 43.248196
Ar 11.136514 5.402369 -5.126168
Ar -262.667302 -74.257015 225.870687
10
Step 730 (scaled positions)
Ar 0.062697 14.790378 -1.638338
Ar 10.946556 -9.400493 19.249358
Ar 11.935703 12.793090 28.607624
Ar -17.515491 7.818168 14.666952
Ar 2.628250 10.507065 -0.624639
Ar 81.051495 61.017402 17.740422
Ar 213.997103 36.804464 -273.496465
Ar 26.076583 12.398308 43.706862
Ar 11.083911 5.266000 -5.217361
Ar -266.319676 -75.327050 228.796116
10
Step 740 (scaled positions)
Ar 0.094501 14.792861 -1.713054
Ar 11.025729 -9.562617 19.491805
Ar 12.040578 12.886572 28.925938
Ar -17.865427 7.828118 14.688899
Ar 2.488635 10.478414 -0.587274
Ar 82.019317 61.788980 17.851977
Ar 216.866888 37.243514 -277.446280
Ar 26.217651 12.478944 44.165529
Ar 11.031309 5.129630 -5.308554
Ar -269.972051 -76.397085 231.721545
10
Step 750 (scaled positions)
Ar 0.131221 14.786481 -1.785455
Ar 11.104901 -9.724740 19.734252
Ar 12.145453 12.980055 29.244253
Ar -18.215363 7.838068 14.710846
Ar 2.344105 10.458625 -0.552223
Ar 82.987140 62.560558 17.963531
Ar 219.736673 37.682564 -281.396095
Ar 26.358720 12.559580 44.624196
Ar 10.978706 4.993261 -5.399746
Ar -273.624426 -77.467120 234.646974
10
Step 760 (scaled positions)
Ar 0.172765 14.770655 -1.855163
Ar 11.184074 -9.886864 19.976699
Ar 12.250329 13.073537 29.562567
Ar -18.565299 7.848017 14.732793
Ar 2.194750 10.448281 -0.519867
Ar 83.954962 63.332135 18.075086
Ar 222.606458 38.121615 -285.345910
Ar 26.499789 12.640216 45.082862
Ar 10.926103 4.856892 -5.490939
Ar -277.276801 -78.537155 237.572403
10
Step 770 (scaled positions)
Ar 0.219071 14.744636 -1.921718
Ar 11.263247 -10.048988 20.219146
Ar 12.355204 13.167020 29.880881
Ar -18.915235 7.857967 14.754740
Ar 2.040633 10.448132 -0.490662
Ar 84.922785 64.103713 18.186641
Ar 225.476243 38.560665 -289.295725
Ar 26.640857 12.720852 45.541529
Ar 10.873501 4.720523 -5.582132
Ar -280.929175 -79.607190 240.497832
10
Step 780 (scaled positions)
Ar 0.270093 14.707473 -1.984557
Ar 11.342420 -10.211112 20.461593
Ar 12.460079 13.260502 30.199195
Ar -19.265171 7.867916 14.776686
Ar 1.881800 10.459126 -0.465175
Ar 85.890607 64.875291 18.298196
Ar 228.346027 38.999715 -293.245540
Ar 26.781926 12.801488 46.000196
Ar 10.820898 4.584154 -5.673325
Ar -284.581550 -80.677224 243.423261
10
Step 790 (scaled positions)
Ar 0.325785 14.657973 -2.042977
Ar 11.421593 -10.373235 20.704040
Ar 12.564955 13.353985 30.517510
Ar -19.615107 7.877866 14.798633
Ar 1.718298 10.482457 -0.444105
Ar 86.858429 65.646869 18.409750
Ar 231.215812 39.438765 -297.195355
Ar 26.922994 12.882125 46.458862
Ar 10.768296 4.447785 -5.764518
Ar -288.233925 -81.747259 246.348690
10
Step 800 (scaled positions)
Ar 0.386068 14.594663 -2.096101
Ar 11.500765 -10.535359 20.946487
Ar 12.669830 13.447467 30.835824
Ar -19.965043 7.887816 14.820580
Ar 1.550204 10.519599 -0.428332
Ar 87.826252 66.418447 18.521305
Ar 234.085597 39.877815 -301.145170
Ar 27.064063 12.962761 46.917529
Ar 10.715693 4.311416 -5.855710
Ar -291.886300 -82.817294 249.274119
10
Step 810 (scaled positions)
Ar 0.450771 14.515815 -2.142856
Ar 11.579938 -10.697483 21.188934
Ar 12.774705 13.540950 31.154138
Ar -20.314979 7.897765 14.842527
Ar 1.377690 10.572278 -0.418928
Ar 88.794074 67.190025 18.632860
Ar 236.955382 40.316866 -305.094986
Ar 27.205131 13.043397 47.376196
Ar 10.663091 4.175047 -5.946903
Ar -295.538675 -83.887329 252.199548
10
Step 820 (scaled positions)
Ar 0.519512 14.419707 -2.182055
Ar 11.659111 -10.859607 21.431381
Ar 12.879581 13.634433 31.472453
Ar -20.664915 7.907715 14.864474
Ar 1.201139 10.642217 -0.417080
Ar 89.761897 67.961603 18.744414
Ar 239.825167 40.755916 -309.044801
Ar 27.346200 13.124033 47.834862
Ar 10.610488 4.038678 -6.038096
Ar -299.191049 -84.957364 255.124977
10
Step 830 (scaled positions)
Ar 0.591483 14.305690 -2.212885
Ar 11.738284 -11.021730 21.673829
Ar 12.984456 13.727915 31.790767
Ar -21.014850 7.917664 14.886421
Ar 1.021357 10.730065 -0.423600
Ar 90.729719 68.733181 18.855969