10
Step 0 (scaled positions)
Ar 2.083714 3.597721 0.001858
Ar 1.514062 0.728751 0.468491
Ar 0.935297 1.730787 1.989413
Ar 2.689148 2.095844 3.423454
Ar 1.020429 4.393696 0.134549
Ar 3.350848 2.083545 2.789334
Ar 0.811994 1.022703 3.912188
Ar 4.841960 1.575895 3.466393
Ar 4.380472 4.469068 0.422557
Ar 0.089294 0.818093 4.475619
10
Step 10 (scaled positions)
Ar 2.080189 3.594408 0.003658
Ar 1.516890 0.722794 0.476970
Ar 0.940289 1.734201 1.996205
Ar 2.629000 2.096656 3.471997
Ar 1.020076 4.396064 0.131418
Ar 3.403633 2.078683 2.732804
Ar 0.960660 1.066158 3.789186
Ar 4.842139 1.586745 3.471953
Ar 4.378641 4.464237 0.419316
Ar -0.054299 0.776157 4.590350
10
Step 20 (scaled positions)
Ar 2.073226 3.594616 0.005710
Ar 1.519149 0.717972 0.484762
Ar 0.944926 1.736646 2.002281
Ar 2.553504 2.097516 3.536050
Ar 1.023784 4.395074 0.128233
Ar 3.473570 2.073600 2.662412
Ar 1.087737 1.103664 3.683684
Ar 4.840949 1.596547 3.476149
Ar 4.376971 4.460035 0.416502
Ar -0.176597 0.740432 4.688072
10
Step 30 (scaled positions)
Ar 2.062031 3.598077 0.008304
Ar 1.521260 0.713399 0.493165
Ar 0.950044 1.738509 2.008976
Ar 2.479502 2.097635 3.597679
Ar 1.031763 4.390854 0.124506
Ar 3.542353 2.068079 2.595045
Ar 1.216224 1.142289 3.576670
Ar 4.838298 1.606989 3.479647
Ar 4.375183 4.455731 0.413628
Ar -0.299439 0.704541 4.786237
10
Step 40 (scaled positions)
Ar 2.046440 3.604940 0.011411
Ar 1.523201 0.709126 0.502089
Ar 0.955736 1.739614 2.016635
Ar 2.405888 2.096307 3.657042
Ar 1.044163 4.383243 0.120265
Ar 3.610342 2.062114 2.530629
Ar 1.346462 1.182793 3.468231
Ar 4.834152 1.617994 3.482239
Ar 4.373344 4.451390 0.410731
Ar -0.422509 0.668583 4.884585
10
Step 50 (scaled positions)
Ar 2.026376 3.615313 0.014995
Ar 1.524952 0.705205 0.511427
Ar 0.962199 1.739748 2.025692
Ar 2.330964 2.092294 3.714079
Ar 1.061058 4.372126 0.115557
Ar 3.678044 2.055712 2.468913
Ar 1.478171 1.226266 3.359470
Ar 4.828543 1.629452 3.483715
Ar 4.371518 4.447079 0.407854
Ar -0.544606 0.632908 4.982154
10
Step 60 (scaled positions)
Ar 2.002030 3.629117 0.019004
Ar 1.526502 0.701661 0.521108
Ar 0.969815 1.738695 2.036670
Ar 2.253848 2.084504 3.768008
Ar 1.082279 4.357589 0.110438
Ar 3.745614 2.048864 2.409919
Ar 1.610857 1.273823 3.251441
Ar 4.821557 1.641291 3.483888
Ar 4.369717 4.442827 0.405017
Ar -0.665001 0.597730 5.078364
10
Step 70 (scaled positions)
Ar 1.974571 3.645449 0.023305
Ar 1.527861 0.698483 0.531146
Ar 0.979209 1.736264 2.050140
Ar 2.176052 2.074683 3.819635
Ar 1.106649 4.340533 0.105041
Ar 3.813427 2.041507 2.353445
Ar 1.742299 1.324037 3.142924
Ar 4.813173 1.653550 3.482579
Ar 4.367938 4.438626 0.402214
Ar -0.783961 0.562972 5.173427
10
Step 80 (scaled positions)
Ar 1.948806 3.660429 0.027450
Ar 1.529045 0.695638 0.541628
Ar 0.991223 1.732309 2.066619
Ar 2.099585 2.066840 3.872642
Ar 1.129336 4.324832 0.099803
Ar 3.882199 2.033548 2.299044
Ar 1.870098 1.373403 3.029458
Ar 4.803326 1.666349 3.479589
Ar 4.366164 4.434438 0.399419
Ar -0.902563 0.528319 5.268204
10
Step 90 (scaled positions)
Ar 1.936385 3.664536 0.030440
Ar 1.530066 0.693103 0.552635
Ar 1.006787 1.726766 2.086401
Ar 2.023091 2.059494 3.926037
Ar 1.138663 4.319999 0.095715
Ar 3.952482 2.024903 2.246439
Ar 1.995132 1.423774 2.911458
Ar 4.791956 1.679798 3.474691
Ar 4.364382 4.430230 0.396611
Ar -1.021726 0.493501 5.363429
10
Step 100 (scaled positions)
Ar 1.944801 3.651491 0.031734
Ar 1.530939 0.690884 0.564215
Ar 1.026701 1.719710 2.109372
Ar 1.945996 2.049535 3.975334
Ar 1.127136 4.332314 0.093317
Ar 4.024331 2.015542 2.195737
Ar 2.117207 1.478230 2.793500
Ar 4.779086 1.693913 3.467663
Ar 4.362589 4.425997 0.393787
Ar -1.141567 0.458485 5.459196
10
Step 110 (scaled positions)
Ar 1.964238 3.629299 0.032181
Ar 1.531685 0.689022 0.576366
Ar 1.051432 1.711390 2.134981
Ar 1.869436 2.037282 4.019733
Ar 1.104590 4.353777 0.091766
Ar 4.097159 2.005512 2.147487
Ar 2.234337 1.535955 2.677155
Ar 4.764858 1.708601 3.458331
Ar 4.360798 4.421769 0.390966
Ar -1.261316 0.423497 5.554889
10
Step 120 (scaled positions)
Ar 1.984068 3.606759 0.032604
Ar 1.532329 0.687514 0.589182
Ar 1.081462 1.702043 2.162802
Ar 1.793107 2.023794 4.061132
Ar 1.081636 4.375585 0.090235
Ar 4.171200 1.994749 2.101649
Ar 2.346809 1.595873 2.560638
Ar 4.749273 1.723934 3.446423
Ar 4.358998 4.417519 0.388130
Ar -1.381664 0.388333 5.651061
10
Step 130 (scaled positions)
Ar 2.000362 3.587187 0.033265
Ar 1.532899 0.686369 0.602725
Ar 1.116943 1.691950 2.192286
Ar 1.716555 2.009691 4.101016
Ar 1.062192 4.394418 0.088455
Ar 4.246461 1.983224 2.058317
Ar 2.455247 1.657206 2.442822
Ar 4.732379 1.739946 3.431674
Ar 4.357183 4.413233 0.385270
Ar -1.503002 0.352880 5.748025
10
Step 140 (scaled positions)
Ar 2.012284 3.571336 0.034195
Ar 1.533423 0.685603 0.617002
Ar 1.157579 1.681416 2.222775
Ar 1.639638 1.995258 4.140072
Ar 1.047098 4.409525 0.086399
Ar 4.322595 1.970964 2.017770
Ar 2.560219 1.719323 2.323719
Ar 4.714252 1.756593 3.413839
Ar 4.355355 4.408917 0.382390
Ar -1.625224 0.317168 5.845694
10
Step 150 (scaled positions)
Ar 2.019880 3.559210 0.035368
Ar 1.533929 0.685230 0.632005
Ar 1.202731 1.670693 2.253688
Ar 1.562359 1.980619 4.178562
Ar 1.036311 4.420903 0.084094
Ar 4.399153 1.958028 1.980295
Ar 2.662435 1.781772 2.203741
Ar 4.695031 1.773813 3.392701
Ar 4.353517 4.404577 0.379494
Ar -1.748127 0.281258 5.943909
10
Step 160 (scaled positions)
Ar 2.023364 3.550664 0.036752
Ar 1.534448 0.685265 0.647719
Ar 1.251557 1.659944 2.284605
Ar 1.484769 1.965825 4.216569
Ar 1.029623 4.428697 0.081573
Ar 4.475667 1.944499 1.946137
Ar 2.762752 1.844250 2.083324
Ar 4.674905 1.791540 3.368063
Ar 4.351671 4.400219 0.376586
Ar -1.871538 0.245199 6.042528
10
Step 170 (scaled positions)
Ar 2.022913 3.545580 0.038317
Ar 1.535006 0.685713 0.664120
Ar 1.303161 1.649245 2.315284
Ar 1.406937 1.950908 4.254132
Ar 1.026862 4.433028 0.078868
Ar 4.551656 1.930482 1.915504
Ar 2.862070 1.906559 1.962802
Ar 4.654090 1.809699 3.339737
Ar 4.349820 4.395848 0.373670
Ar -1.995294 0.209040 6.141424
10
Step 180 (scaled positions)
Ar 2.018651 3.543929 0.040046
Ar 1.535625 0.686577 0.681178
Ar 1.356716 1.638603 2.345618
Ar 1.328961 1.935890 4.291247
Ar 1.027943 4.433938 0.076001
Ar 4.626634 1.916113 1.888558
Ar 2.961172 1.968563 1.842442
Ar 4.632824 1.828206 3.307553
Ar 4.347929 4.391458 0.370744
Ar -2.119236 0.172826 6.240468
10
Step 190 (scaled positions)
Ar 2.010539 3.545744 0.041918
Ar 1.536322 0.687850 0.698859
Ar 1.411550 1.627986 2.375588
Ar 1.250955 1.920788 4.327880
Ar 1.032881 4.431384 0.072994
Ar 4.700146 1.901547 1.865421
Ar 3.060662 2.030170 1.722476
Ar 4.611370 1.846975 3.271346
Ar 4.346029 4.387063 0.367816
Ar -2.243237 0.136595 6.339559
10
Step 200 (scaled positions)
Ar 1.998488 3.551121 0.043953
Ar 1.537106 0.689518 0.717123
Ar 1.467142 1.617352 2.405199
Ar 1.173034 1.905624 4.364015
Ar 1.041786 4.425235 0.069862
Ar 4.771756 1.886961 1.846185
Ar 3.160922 2.091329 1.603073
Ar 4.590020 1.865908 3.230966
Ar 4.344130 4.382670 0.364889
Ar -2.367165 0.100385 6.438592
10
Step 210 (scaled positions)
Ar 1.982351 3.560221 0.046172
Ar 1.537981 0.691562 0.735928
Ar 1.523102 1.606662 2.434451
Ar 1.095314 1.890422 4.399647
Ar 1.054839 4.415293 0.066623
Ar 4.841053 1.872546 1.830919
Ar 3.262131 2.151979 1.484414
Ar 4.569092 1.884897 3.186283
Ar 4.342234 4.378284 0.361967
Ar -2.490877 0.064238 6.537453
10
Step 220 (scaled positions)
Ar 1.961993 3.573217 0.048561
Ar 1.538948 0.693958 0.755232
Ar 1.579143 1.595886 2.463328
Ar 1.017903 1.875206 4.434781
Ar 1.072193 4.401378 0.063298
Ar 4.907662 1.858498 1.819685
Ar 3.364326 2.212030 1.366712
Ar 4.548938 1.903823 3.137177
Ar 4.340344 4.373911 0.359054
Ar -2.614232 0.028196 6.636028
10
Step 230 (scaled positions)
Ar 1.937663 3.589929 0.051090
Ar 1.540002 0.696678 0.774993
Ar 1.635064 1.585005 2.491804
Ar 0.940892 1.860001 4.469436
Ar 1.093619 4.383667 0.059917
Ar 4.971251 1.845011 1.812546
Ar 3.467438 2.271414 1.250157
Ar 4.529941 1.922559 3.083536
Ar 4.338458 4.369547 0.356156
Ar -2.737107 -0.007706 6.734220
10
Step 240 (scaled positions)
Ar 1.911200 3.608672 0.053715
Ar 1.541096 0.699660 0.795188
Ar 1.690778 1.573993 2.519872
Ar 0.864270 1.844812 4.503670
Ar 1.117285 4.363844 0.056521
Ar 5.031576 1.832257 1.809572
Ar 3.571494 2.330244 1.134769
Ar 4.512500 1.940984 3.025199
Ar 4.336542 4.365110 0.353306
Ar -2.859521 -0.043474 6.832043
10
Step 250 (scaled positions)
Ar 1.889092 3.623263 0.056407
Ar 1.542234 0.702899 0.815905
Ar 1.746486 1.562778 2.547665
Ar 0.787659 1.829573 4.537703
Ar 1.136695 4.348093 0.053123
Ar 5.088671 1.820342 1.810848
Ar 3.676913 2.388873 1.019990
Ar 4.496980 1.959048 2.961723
Ar 4.334567 4.360517 0.350510
Ar -2.982079 -0.079283 6.929981
10
Step 260 (scaled positions)
Ar 1.883141 3.622242 0.059264
Ar 1.543439 0.706407 0.837272
Ar 1.802472 1.551261 2.575371
Ar 0.710556 1.814191 4.571799
Ar 1.140033 4.347872 0.049613
Ar 5.142607 1.809353 1.816499
Ar 3.784255 2.447775 0.905037
Ar 4.483786 1.976707 2.892565
Ar 4.332502 4.355661 0.347770
Ar -3.105573 -0.115366 7.028667
10
Step 270 (scaled positions)
Ar 1.895243 3.603679 0.062376
Ar 1.544710 0.710132 0.859025
Ar 1.858061 1.539582 2.602634
Ar 0.633870 1.798855 4.605593
Ar 1.125436 4.365134 0.045896
Ar 5.192453 1.799571 1.826493
Ar 3.892050 2.506383 0.791238
Ar 4.473582 1.993580 2.818532
Ar 4.330348 4.350480 0.345141
Ar -3.228536 -0.151294 7.126929
10
Step 280 (scaled positions)
Ar 1.913795 3.578877 0.065619
Ar 1.546052 0.714042 0.881020
Ar 1.912911 1.527818 2.629267
Ar 0.558060 1.783662 4.638911
Ar 1.104524 4.388588 0.042096
Ar 5.237698 1.791169 1.840604
Ar 3.999449 2.564548 0.679216
Ar 4.466848 2.009412 2.740297
Ar 4.328096 4.344834 0.342663
Ar -3.350214 -0.186846 7.224164
10
Step 290 (scaled positions)
Ar 1.931017 3.555487 0.068840
Ar 1.547487 0.718154 0.903414
Ar 1.967452 1.515884 2.655463
Ar 0.482519 1.768500 4.672044
Ar 1.085061 4.410579 0.038352
Ar 5.278796 1.784091 1.858369
Ar 4.107120 2.623020 0.568008
Ar 4.463619 2.024263 2.657898
Ar 4.325709 4.338429 0.340335
Ar -3.471561 -0.222302 7.321134
10
Step 300 (scaled positions)
Ar 1.944563 3.535874 0.071951
Ar 1.549030 0.722474 0.926273
Ar 2.021913 1.503739 2.681257
Ar 0.406934 1.753322 4.705180
Ar 1.069382 4.428745 0.034742
Ar 5.316752 1.778085 1.878585
Ar 4.215294 2.682401 0.457141
Ar 4.463176 2.038358 2.572393
Ar 4.323181 4.330892 0.338151
Ar -3.593006 -0.257786 7.418183
10
Step 310 (scaled positions)
Ar 1.954073 3.520433 0.074908
Ar 1.550692 0.726993 0.949602
Ar 2.076390 1.491392 2.706655
Ar 0.331227 1.738119 4.738370
Ar 1.057836 4.442698 0.031304
Ar 5.353866 1.772463 1.899144
Ar 4.323904 2.743244 0.346486
Ar 4.463327 2.052332 2.485927
Ar 4.320551 4.321757 0.336072
Ar -3.714647 -0.293328 7.515388
10
Step 320 (scaled positions)
Ar 1.959629 3.509073 0.077680
Ar 1.552482 0.731703 0.973392
Ar 2.130940 1.478866 2.731667
Ar 0.255390 1.722891 4.771617
Ar 1.050274 4.452555 0.028053
Ar 5.393531 1.766145 1.917829
Ar 4.432826 2.806137 0.236061
Ar 4.460712 2.067204 2.400800
Ar 4.317930 4.310460 0.333995
Ar -3.836497 -0.328931 7.612761
10
Step 330 (scaled positions)
Ar 1.961405 3.501649 0.080247
Ar 1.554406 0.736586 0.997590
Ar 2.185478 1.466195 2.756260
Ar 0.179545 1.707660 4.804867
Ar 1.046503 4.458479 0.025010
Ar 5.437523 1.758510 1.934035
Ar 4.541649 2.871613 0.126165
Ar 4.453549 2.083536 2.317810
Ar 4.315519 4.296411 0.331730
Ar -3.958359 -0.364537 7.710143
10
Step 340 (scaled positions)
Ar 1.959608 3.498079 0.082598
Ar 1.556467 0.741622 1.022134
Ar 2.239904 1.453420 2.780395
Ar 0.103836 1.692457 4.838057
Ar 1.046386 4.460580 0.022192
Ar 5.483831 1.750163 1.949044
Ar 4.649803 2.940147 0.017238
Ar 4.443819 2.100666 2.235876
Ar 4.313568 4.279049 0.328972
Ar -4.080003 -0.400079 7.807351
10
Step 350 (scaled positions)
Ar 1.954305 3.498342 0.084716
Ar 1.558670 0.746802 1.047020
Ar 2.294246 1.440550 2.804089
Ar 0.028230 1.677275 4.871203
Ar 1.049872 4.458879 0.019616
Ar 5.528753 1.742323 1.964226
Ar 4.756895 3.012206 -0.090440
Ar 4.435258 2.117346 2.153668
Ar 4.312472 4.257953 0.325332
Ar -4.201482 -0.435574 7.904427
10
Step 360 (scaled positions)
Ar 1.945439 3.502522 0.086581
Ar 1.561023 0.752125 1.072263
Ar 2.348578 1.427584 2.827379
Ar -0.047373 1.662094 4.904347
Ar 1.057016 4.453294 0.017303
Ar 5.569615 1.735888 1.980057
Ar 4.862576 3.088116 -0.196673
Ar 4.430619 2.132633 2.070727
Ar 4.312682 4.232916 0.320371
Ar -4.322956 -0.471066 8.001499
10
Step 370 (scaled positions)
Ar 1.932866 3.510798 0.088160
Ar 1.563532 0.757582 1.097865
Ar 2.402933 1.414526 2.850289
Ar -0.123023 1.646903 4.937512
Ar 1.067963 4.443640 0.015286
Ar 5.605188 1.731300 1.996314
Ar 4.966474 3.167874 -0.301189
Ar 4.431157 2.146051 1.987319
Ar 4.314635 4.204012 0.313669
Ar -4.444505 -0.506581 8.098631
10
Step 380 (scaled positions)
Ar 1.916412 3.523387 0.089415
Ar 1.566198 0.763165 1.123807
Ar 2.457300 1.401391 2.872823
Ar -0.198711 1.631704 4.970693
Ar 1.082884 4.429699 0.013602
Ar 5.635164 1.728693 2.012537
Ar 5.068236 3.251151 -0.403694
Ar 4.437168 2.157441 1.903972
Ar 4.318681 4.171585 0.304891
Ar -4.566115 -0.542113 8.195811
10
Step 390 (scaled positions)
Ar 1.896050 3.540318 0.090314
Ar 1.569022 0.768861 1.150059
Ar 2.511646 1.388193 2.894982
Ar -0.274400 1.616505 5.003875
Ar 1.101781 4.411437 0.012280
Ar 5.659677 1.728041 2.028271
Ar 5.167611 3.337375 -0.503943
Ar 4.448508 2.166824 1.821179
Ar 4.325049 4.136195 0.293847
Ar -4.687727 -0.577647 8.292993
10
Step 400 (scaled positions)
Ar 1.872593 3.560646 0.090910
Ar 1.572005 0.774661 1.176603
Ar 2.565954 1.374942 2.916776
Ar -0.350084 1.601307 5.037055
Ar 1.123777 4.389778 0.011261
Ar 5.679046 1.729253 2.043129
Ar 5.264570 3.425892 -0.601903
Ar 4.464863 2.174341 1.739298
Ar 4.333826 4.098462 0.280558
Ar -4.809331 -0.613178 8.390170
10
Step 410 (scaled positions)
Ar 1.849894 3.580106 0.091606
Ar 1.575155 0.780573 1.203502
Ar 2.620370 1.361604 2.938285
Ar -0.425985 1.586066 5.070329
Ar 1.145011 4.368983 0.010141
Ar 5.693680 1.732223 2.056836
Ar 5.359552 3.516305 -0.698007
Ar 4.485936 2.180174 1.658372
Ar 4.344889 4.058878 0.265168
Ar -4.931284 -0.648810 8.487624
10
Step 420 (scaled positions)
Ar 1.837654 3.587768 0.093568
Ar 1.578499 0.786640 1.230963
Ar 2.675329 1.348074 2.959700
Ar -0.502726 1.570656 5.103972
Ar 1.155769 4.359971 0.007750
Ar 5.704019 1.736879 2.069228
Ar 5.453626 3.608783 -0.793314
Ar 4.511590 2.184500 1.577993
Ar 4.358044 4.017670 0.247839
Ar -5.054586 -0.684837 8.586157
10
Step 430 (scaled positions)
Ar 1.843480 3.574926 0.097829
Ar 1.582023 0.792831 1.258870
Ar 2.730619 1.334403 2.980961
Ar -0.580028 1.555133 5.137861
Ar 1.148451 4.371454 0.003057
Ar 5.710326 1.743111 2.080022
Ar 5.546810 3.702537 -0.887820
Ar 4.541441 2.187431 1.498667
Ar 4.372884 3.975406 0.228998
Ar -5.178789 -0.721127 8.685410
10
Step 440 (scaled positions)
Ar 1.859680 3.550261 0.103462
Ar 1.585679 0.799055 1.286833
Ar 2.785460 1.320768 3.001822
Ar -0.656848 1.539707 5.171539
Ar 1.130768 4.394767 -0.003005
Ar 5.712802 1.750745 2.088866
Ar 5.638224 3.795993 -0.980604
Ar 4.574832 2.189072 1.421621
Ar 4.388841 3.932925 0.209278
Ar -5.302219 -0.757192 8.784045
10
Step 450 (scaled positions)
Ar 1.876622 3.524755 0.109190
Ar 1.589481 0.805339 1.314984
Ar 2.840099 1.307081 3.022447
Ar -0.733595 1.524295 5.205185
Ar 1.112344 4.418924 -0.009163
Ar 5.711730 1.759737 2.095625
Ar 5.728683 3.889462 -1.072473
Ar 4.611709 2.189587 1.346558
Ar 4.405677 3.890143 0.188918
Ar -5.425531 -0.793221 8.882586
10
Step 460 (scaled positions)
Ar 1.890633 3.502654 0.114476
Ar 1.593448 0.811711 1.343463
Ar 2.894835 1.293274 3.042963
Ar -0.810686 1.508815 5.238981
Ar 1.096844 4.439669 -0.014880
Ar 5.707340 1.770065 2.100158
Ar 5.818936 3.983354 -1.164172
Ar 4.652029 2.189109 1.273211
Ar 4.423234 3.846865 0.168089
Ar -5.549395 -0.829413 8.981568
10
Step 470 (scaled positions)
Ar 1.900918 3.484926 0.119170
Ar 1.597577 0.818165 1.372265
Ar 2.949690 1.279347 3.063390
Ar -0.888146 1.493261 5.272939
Ar 1.085064 4.456035 -0.020006
Ar 5.699830 1.781672 2.102287
Ar 5.909205 4.077658 -1.255912
Ar 4.695588 2.187769 1.201692
Ar 4.441343 3.803047 0.147009
Ar -5.673852 -0.865777 9.081023
10
Step 480 (scaled positions)
Ar 1.907503 3.471582 0.123243
Ar 1.601860 0.824690 1.401342
Ar 3.004600 1.265324 3.083716
Ar -0.965879 1.477651 5.307017
Ar 1.076979 4.468012 -0.024513
Ar 5.689398 1.794492 2.101826
Ar 5.999513 4.172243 -1.347709
Ar 4.742125 2.185709 1.132219
Ar 4.459869 3.758669 0.125885
Ar -5.798748 -0.902270 9.180830
10
Step 490 (scaled positions)
Ar 1.910575 3.462441 0.126697
Ar 1.606284 0.831271 1.430642
Ar 3.059496 1.251229 3.103926
Ar -1.043780 1.462008 5.341169
Ar 1.072403 4.475783 -0.028403
Ar 5.676238 1.808457 2.098596
Ar 6.089829 4.266985 -1.439526
Ar 4.791367 2.183087 1.065008
Ar 4.478722 3.713684 0.104895
Ar -5.923915 -0.938841 9.280852
10
Step 500 (scaled positions)
Ar 1.910295 3.457346 0.129534
Ar 1.610841 0.837896 1.460118
Ar 3.114317 1.237083 3.124008
Ar -1.121757 1.446350 5.375354
Ar 1.071177 4.479506 -0.031676
Ar 5.660543 1.823503 2.092417
Ar 6.180110 4.361776 -1.531313
Ar 4.843039 2.180078 1.000248
Ar 4.497857 3.668014 0.084194
Ar -6.049203 -0.975448 9.380972
10
Step 510 (scaled positions)
Ar 1.906750 3.456229 0.131744
Ar 1.615521 0.844552 1.489728
Ar 3.169011 1.222905 3.143953
Ar -1.199729 1.430693 5.409536
Ar 1.073217 4.479252 -0.034322
Ar 5.642510 1.839568 2.083113
Ar 6.270311 4.456533 -1.623024
Ar 4.896853 2.176877 0.938108
Ar 4.517257 3.621548 0.063934
Ar -6.174483 -1.012053 9.481086
10
Step 520 (scaled positions)
Ar 1.899941 3.459124 0.133300
Ar 1.620312 0.851230 1.519429
Ar 3.223525 1.208715 3.163750
Ar -1.277610 1.415053 5.443679
Ar 1.078522 4.474987 -0.036313
Ar 5.622342 1.856591 2.070508
Ar 6.360401 4.551176 -1.714623
Ar 4.952497 2.173702 0.878749
Ar 4.536905 3.574141 0.044294
Ar -6.299618 -1.048616 9.581083
10
Step 530 (scaled positions)
Ar 1.889791 3.466163 0.134160
Ar 1.625204 0.857918 1.549180
Ar 3.277811 1.194531 3.183390
Ar -1.355325 1.399448 5.477749
Ar 1.087171 4.466581 -0.037607
Ar 5.600249 1.874509 2.054425
Ar 6.450298 4.645616 -1.806024
Ar 5.009634 2.170796 0.822310
Ar 4.556868 3.525641 0.025409
Ar -6.424483 -1.085099 9.680865
10
Step 540 (scaled positions)
Ar 1.876164 3.477556 0.134265
Ar 1.630187 0.864606 1.578939
Ar 3.331816 1.180371 3.202863
Ar -1.432789 1.383893 5.511709
Ar 1.099303 4.453826 -0.038145
Ar 5.576453 1.893260 2.034692
Ar 6.539905 4.739752 -1.897131
Ar 5.067884 2.168430 0.768919
Ar 4.577242 3.475876 0.007419
Ar -6.548948 -1.121466 9.780327
10
Step 550 (scaled positions)
Ar 1.858954 3.493476 0.133561
Ar 1.635247 0.871282 1.608663
Ar 3.385482 1.166255 3.222153
Ar -1.509909 1.368406 5.545518
Ar 1.115024 4.436549 -0.037872
Ar 5.551196 1.912776 2.011142
Ar 6.629115 4.833471 -1.987835
Ar 5.126812 2.166903 0.718692
Ar 4.598159 3.424655 -0.009513
Ar -6.672860 -1.157671 9.879347
10
Step 560 (scaled positions)
Ar 1.838400 3.513668 0.132069
Ar 1.640374 0.877938 1.638309
Ar 3.438755 1.152201 3.241250
Ar -1.586602 1.353006 5.579140
Ar 1.134098 4.415009 -0.036809
Ar 5.524730 1.932993 1.983611
Ar 6.717830 4.926669 -2.078035
Ar 5.185931 2.166543 0.671716
Ar 4.619789 3.371752 -0.025213
Ar -6.796085 -1.193675 9.977818
10
Step 570 (scaled positions)
Ar 1.816128 3.536084 0.130151
Ar 1.645563 0.884573 1.667877
Ar 3.491658 1.138208 3.260165
Ar -1.662890 1.337687 5.612585
Ar 1.154897 4.391251 -0.035318
Ar 5.497287 1.953874 1.951896
Ar 6.806076 5.019376 -2.167759
Ar 5.244773 2.167707 0.627991
Ar 4.642386 3.316834 -0.039503
Ar -6.918659 -1.229490 10.075770
10
Step 580 (scaled positions)
Ar 1.797726 3.553475 0.129218
Ar 1.650835 0.891217 1.697513
Ar 3.544466 1.124206 3.279005
Ar -1.739162 1.322371 5.646022
Ar 1.171826 4.372518 -0.034811
Ar 5.468981 1.975489 1.915621
Ar 6.894304 5.112063 -2.257464
Ar 5.303068 2.170800 0.587289
Ar 4.666382 3.259260 -0.052237
Ar -7.041207 -1.265296 10.173700
10
Step 590 (scaled positions)
Ar 1.792950 3.552972 0.131897
Ar 1.656215 0.897910 1.727383
Ar 3.597511 1.110119 3.297879
Ar -1.815873 1.306966 5.679652
Ar 1.175121 4.371672 -0.037919
Ar 5.439878 1.997970 1.874284
Ar 6.983041 5.205284 -2.347686
Ar 5.360491 2.176281 0.549343
Ar 4.692348 3.198237 -0.063174
Ar -7.164462 -1.301310 10.272195
10
Step 600 (scaled positions)
Ar 1.802816 3.533134 0.138558
Ar 1.661579 0.904559 1.757067
Ar 3.650238 1.096159 3.316556
Ar -1.892059 1.291668 5.713052
Ar 1.163784 4.390171 -0.045006
Ar 5.410571 2.021001 1.828186
Ar 7.071169 5.297867 -2.437289
Ar 5.415535 2.184532 0.514559
Ar 4.720458 3.134089 -0.071842
Ar -7.286872 -1.337076 10.370015
10
Step 610 (scaled positions)
Ar 1.817623 3.506777 0.146571
Ar 1.666875 0.911124 1.786375
Ar 3.702370 1.082412 3.334936
Ar -1.967283 1.276562 5.746029
Ar 1.147525 4.415205 -0.053439
Ar 5.381533 2.044437 1.777368
Ar 7.158184 5.389280 -2.525761
Ar 5.467017 2.195902 0.483042
Ar 4.751109 3.066795 -0.077864
Ar -7.407736 -1.372390 10.466599
10
Step 620 (scaled positions)
Ar 1.831109 3.482254 0.154164
Ar 1.672142 0.917651 1.815517
Ar 3.754275 1.068783 3.353148
Ar -2.042078 1.261543 5.778819
Ar 1.132595 4.438413 -0.061449
Ar 5.352890 2.068448 1.721243
Ar 7.244704 5.480173 -2.613730
Ar 5.514507 2.210619 0.454553
Ar 4.784988 2.995724 -0.081044
Ar -7.527912 -1.407504 10.562634
10
Step 630 (scaled positions)
Ar 1.841413 3.462106 0.160762
Ar 1.677391 0.924158 1.844568
Ar 3.806068 1.055227 3.371252
Ar -2.116640 1.246570 5.811507
Ar 1.120851 4.457249 -0.068465
Ar 5.324923 2.093132 1.659397
Ar 7.330954 5.570782 -2.701423
Ar 5.557976 2.228063 0.429505
Ar 4.821995 2.921323 -0.081616
Ar -7.647713 -1.442508 10.658369
10
Step 640 (scaled positions)
Ar 1.848277 3.446719 0.166261
Ar 1.682633 0.930656 1.873574
Ar 3.857785 1.041695 3.389325
Ar -2.191088 1.231621 5.844145
Ar 1.112550 4.471326 -0.074380
Ar 5.297978 2.118607 1.591437
Ar 7.417073 5.661253 -2.788983
Ar 5.599933 2.245282 0.410024
Ar 4.859409 2.846402 -0.081504
Ar -7.767331 -1.477458 10.753958
10
Step 650 (scaled positions)
Ar 1.851851 3.435891 0.170697
Ar 1.687895 0.937177 1.902689
Ar 3.909696 1.028112 3.407465
Ar -2.265814 1.216615 5.876904
Ar 1.107533 4.480841 -0.079233
Ar 5.272213 2.145056 1.516934
Ar 7.503512 5.752061 -2.876870
Ar 5.648744 2.255586 0.401486
Ar 4.888984 2.777303 -0.086120
Ar -7.887396 -1.512539 10.849904
10
Step 660 (scaled positions)
Ar 1.852288 3.429460 0.174083
Ar 1.693163 0.943707 1.931840
Ar 3.961673 1.014512 3.425627
Ar -2.340634 1.201591 5.909705
Ar 1.105651 4.485956 -0.083038
Ar 5.247678 2.172360 1.436894
Ar 7.590061 5.842985 -2.964868
Ar 5.712587 2.254188 0.407988
Ar 4.902364 2.719009 -0.100348
Ar -8.007612 -1.547665 10.945971
10
Step 670 (scaled positions)
Ar 1.849697 3.427366 0.176398
Ar 1.698383 0.950178 1.960728
Ar 4.013179 1.001035 3.443626
Ar -2.414778 1.186702 5.942210
Ar 1.106811 4.486745 -0.085766
Ar 5.223326 2.200002 1.355315
Ar 7.675828 5.933085 -3.052070
Ar 5.786646 2.246158 0.422261
Ar 4.904868 2.667302 -0.120013
Ar -8.126741 -1.582472 11.041169
10
Step 680 (scaled positions)
Ar 1.844104 3.429573 0.177641
Ar 1.703584 0.956625 1.989511
Ar 4.064498 0.987608 3.461559
Ar -2.488652 1.171868 5.974596
Ar 1.110977 4.483239 -0.087423
Ar 5.195518 2.227964 1.276915
Ar 7.761282 6.022859 -3.138955
Ar 5.864696 2.237706 0.432319
Ar 4.906647 2.615815 -0.138327
Ar -8.245436 -1.617153 11.136020
10
Step 690 (scaled positions)
Ar 1.835455 3.436179 0.177777
Ar 1.708782 0.963068 2.018273
Ar 4.115780 0.974189 3.479479
Ar -2.562473 1.157044 6.006959
Ar 1.118202 4.475335 -0.087971
Ar 5.161606 2.256579 1.202818
Ar 7.846675 6.112567 -3.225777
Ar 5.944632 2.230745 0.433175
Ar 4.912607 2.562206 -0.151681
Ar -8.364047 -1.651809 11.230804
10
Step 700 (scaled positions)
Ar 1.823672 3.447347 0.176738
Ar 1.713959 0.969485 2.046923
Ar 4.166862 0.960823 3.497329
Ar -2.636005 1.142278 6.039195
Ar 1.128565 4.462874 -0.087343
Ar 5.124159 2.286009 1.128237
Ar 7.931734 6.201925 -3.312260
Ar 6.022317 2.225319 0.428148
Ar 4.924150 2.506371 -0.158328
Ar -8.482194 -1.686330 11.325217
10
Step 710 (scaled positions)
Ar 1.808683 3.463230 0.174464
Ar 1.719110 0.975870 2.075425
Ar 4.217681 0.947526 3.515088
Ar -2.709160 1.127588 6.071266
Ar 1.142141 4.445705 -0.085478
Ar 5.087625 2.316035 1.047825
Ar 8.016356 6.290825 -3.398299
Ar 6.093094 2.221325 0.421546
Ar 4.941422 2.448674 -0.157127
Ar -8.599734 -1.720673 11.419146
10
Step 720 (scaled positions)
Ar 1.790686 3.483585 0.170994
Ar 1.724229 0.982214 2.103749
Ar 4.268183 0.934312 3.532735
Ar -2.781857 1.112990 6.103136
Ar 1.158734 4.424070 -0.082415
Ar 5.054913 2.346061 0.960074
Ar 8.100449 6.379168 -3.483800
Ar 6.154368 2.218715 0.415171
Ar 4.964053 2.389789 -0.148276
Ar -8.716539 -1.754802 11.512487
10
Step 730 (scaled positions)
Ar 1.770812 3.506723 0.166780
Ar 1.729352 0.988564 2.132098
Ar 4.318728 0.921087 3.550398
Ar -2.854617 1.098379 6.135034
Ar 1.177203 4.399653 -0.078607
Ar 5.027649 2.375609 0.874073
Ar 8.184615 6.467588 -3.569375
Ar 6.205716 2.217392 0.409169
Ar 4.991205 2.330068 -0.141623
Ar -8.833445 -1.788960 11.605908
10
Step 740 (scaled positions)
Ar 1.752998 3.526520 0.163565
Ar 1.734642 0.995122 2.161374
Ar 4.370926 0.907429 3.568639
Ar -2.929758 1.083291 6.167975
Ar 1.193567 4.378535 -0.075811
Ar 5.006058 2.407936 0.824354
Ar 8.271534 6.558900 -3.657749
Ar 6.248596 2.217194 0.403006
Ar 5.022831 2.265413 -0.173883
Ar -8.954176 -1.824235 11.702386
10
Step 750 (scaled positions)
Ar 1.746545 3.528959 0.165249
Ar 1.739952 1.001703 2.190755
Ar 4.423312 0.893722 3.586944
Ar -3.005166 1.068148 6.201034
Ar 1.198564 4.374770 -0.077917
Ar 4.988838 2.445474 0.817990
Ar 8.358763 6.650538 -3.746439
Ar 6.282422 2.217916 0.396449
Ar 5.059326 2.194511 -0.249417
Ar -9.075337 -1.859637 11.799208
10
Step 760 (scaled positions)
Ar 1.753909 3.510188 0.172990
Ar 1.745190 1.008196 2.219741
Ar 4.474994 0.880199 3.605004
Ar -3.079563 1.053209 6.233649
Ar 1.189764 4.392232 -0.086075
Ar 4.975750 2.483153 0.817807
Ar 8.444822 6.740946 -3.833938
Ar 6.307706 2.219292 0.389295
Ar 5.099520 2.123252 -0.329349
Ar -9.194872 -1.894563 11.894731
10
Step 770 (scaled positions)
Ar 1.766724 3.482918 0.183216
Ar 1.750432 1.014693 2.248747
Ar 4.526710 0.866667 3.623076
Ar -3.154008 1.038260 6.266286
Ar 1.175511 4.418192 -0.096716
Ar 4.966798 2.518628 0.811730
Ar 8.530938 6.831414 -3.921495
Ar 6.325901 2.221110 0.381231
Ar 5.142700 2.053734 -0.402535
Ar -9.314487 -1.929513 11.990317
10
Step 780 (scaled positions)
Ar 1.778860 3.456666 0.193152
Ar 1.755725 1.021254 2.278037
Ar 4.578932 0.853003 3.641325
Ar -3.229183 1.023164 6.299243
Ar 1.161924 4.443122 -0.107072
Ar 4.961692 2.551844 0.799564
Ar 8.617897 6.922768 -4.009910
Ar 6.337913 2.223206 0.372025
Ar 5.188731 1.985881 -0.469345
Ar -9.435272 -1.964804 12.086839
10
Step 790 (scaled positions)
Ar 1.788371 3.434537 0.201853
Ar 1.761075 1.027886 2.307646
Ar 4.631725 0.839189 3.659773
Ar -3.305179 1.007904 6.332559
Ar 1.150946 4.463914 -0.116198
Ar 4.960141 2.583077 0.782634
Ar 8.705805 7.015119 -4.099290
Ar 6.344238 2.225440 0.361542
Ar 5.237472 1.919518 -0.531077
Ar -9.557377 -2.000481 12.184414
10
Step 800 (scaled positions)
Ar 1.794931 3.417117 0.209115
Ar 1.766471 1.034575 2.337505
Ar 4.684964 0.825259 3.678377
Ar -3.381816 0.992514 6.366156
Ar 1.142906 4.479987 -0.123889
Ar 4.961929 2.612544 0.762106
Ar 8.794456 7.108251 -4.189425
Ar 6.345180 2.227693 0.349707
Ar 5.288710 1.854624 -0.588611
Ar -9.680513 -2.036460 12.282814
10
Step 810 (scaled positions)
Ar 1.798641 3.404305 0.214945
Ar 1.771898 1.041302 2.367536
Ar 4.738509 0.811249 3.697088
Ar -3.458894 0.977036 6.399947
Ar 1.137709 4.491444 -0.130149
Ar 4.966923 2.640398 0.738818
Ar 8.883616 7.201918 -4.280078
Ar 6.340939 2.229869 0.336469
Ar 5.342234 1.791229 -0.642499
Ar -9.804356 -2.072645 12.381780
10
Step 820 (scaled positions)
Ar 1.799663 3.395888 0.219386
Ar 1.777345 1.048052 2.397674
Ar 4.792243 0.797189 3.715865
Ar -3.536245 0.961504 6.433857
Ar 1.135193 4.498501 -0.135022
Ar 4.975075 2.666726 0.713338
Ar 8.973092 7.295916 -4.371052
Ar 6.331642 2.231899 0.321796
Ar 5.397850 1.729387 -0.693082
Ar -9.928638 -2.108958 12.481096
10
Step 830 (scaled positions)
Ar 1.798126 3.391705 0.222468
Ar 1.782801 1.054815 2.427865
Ar 4.846072 0.783104 3.734675
Ar -3.613733 0.945944 6.467828
Ar 1.135234 4.501320 -0.138538
Ar 4.986425 2.691549 0.686042
Ar 9.062727 7.390081 -4.462187
Ar 6.317341 2.233745 0.305673
Ar 5.455367 1.669176 -0.740558
Ar -10.053141 -2.145336 12.580588
10
Step 840 (scaled positions)
Ar 1.794097 3.391692 0.224195
Ar 1.788258 1.061579 2.458064
Ar 4.899917 0.769015 3.753491
Ar -3.691242 0.930379 6.501808
Ar 1.137766 4.499970 -0.140698
Ar 5.001108 2.714819 0.657163
Ar 9.152387 7.484272 -4.553348
Ar 6.298017 2.235407 0.288109
Ar 5.514589 1.610692 -0.785036
Ar -10.177678 -2.181723 12.680107
10
Step 850 (scaled positions)
Ar 1.787577 3.395893 0.224532
Ar 1.793709 1.068336 2.488229
Ar 4.953700 0.754943 3.772285
Ar -3.768663 0.914833 6.535749
Ar 1.142791 4.494408 -0.141468
Ar 5.019358 2.736409 0.626833
Ar 9.241944 7.578355 -4.644404
Ar 6.273575 2.236938 0.269149
Ar 5.575300 1.554059 -0.826561
Ar -10.302072 -2.218070 12.779513
10
Step 860 (scaled positions)
Ar 1.778510 3.404453 0.223413
Ar 1.799146 1.075075 2.518314
Ar 5.007341 0.740907 3.791030
Ar -3.845880 0.899327 6.569601
Ar 1.150368 4.484490 -0.140780
Ar 5.041513 2.756102 0.595099
Ar 9.331265 7.672191 -4.735221
Ar 6.243844 2.238464 0.248888
Ar 5.637251 1.499415 -0.865145
Ar -10.426139 -2.254320 12.878657
10
Step 870 (scaled positions)
Ar 1.766792 3.417600 0.220738
Ar 1.804559 1.081785 2.548268
Ar 5.060749 0.726932 3.809693
Ar -3.922761 0.883889 6.603305
Ar 1.160601 4.469990 -0.138535
Ar 5.068005 2.773582 0.561951
Ar 9.420197 7.765618 -4.825642
Ar 6.208591 2.240203 0.227486
Ar 5.700151 1.446916 -0.900777
Ar -10.549666 -2.290413 12.977370
10
Step 880 (scaled positions)
Ar 1.752341 3.435541 0.216415
Ar 1.809938 1.088452 2.578032
Ar 5.113816 0.713047 3.828237
Ar -3.999152 0.868549 6.636795
Ar 1.173577 4.450706 -0.134639
Ar 5.099274 2.788456 0.527342
Ar 9.508564 7.858451 -4.915487
Ar 6.167610 2.242457 0.205163
Ar 5.763657 1.396721 -0.933454
Ar -10.672406 -2.326275 13.075454
10
Step 890 (scaled positions)
Ar 1.735302 3.458079 0.210487
Ar 1.815272 1.095064 2.607549
Ar 5.166446 0.699276 3.846628
Ar -4.074913 0.853336 6.670008