10
Step 0 (scaled positions)
Ar 7.099701 12.263493 0.001984
Ar 5.147261 2.498416 1.572220
Ar 3.171171 5.883229 6.755084
Ar 9.169855 7.136830 11.669065
Ar 3.480830 14.949964 0.466213
Ar 11.418089 7.104495 9.508353
Ar 2.777935 3.480919 13.336273
Ar 16.484645 5.336243 11.786887
Ar 14.920492 15.230592 1.447820
Ar 0.277151 2.783149 15.246632
10
Step 10 (scaled positions)
Ar 7.091091 12.269029 0.003386
Ar 5.147391 2.497994 1.574703
Ar 3.173185 5.882603 6.757308
Ar 8.925878 7.138475 11.899677
Ar 3.488930 14.944328 0.464608
Ar 11.660823 7.099475 9.277098
Ar 6.697447 4.576633 10.340558
Ar 16.482030 5.339061 11.786835
Ar 14.919987 15.229665 1.447210
Ar -3.639633 1.690067 18.239146
10
Step 20 (scaled positions)
Ar 7.068405 12.285368 0.006686
Ar 5.146901 2.498698 1.578927
Ar 3.180364 5.879352 6.762648
Ar 8.634224 7.153962 12.196443
Ar 3.511417 14.928007 0.461161
Ar 12.053658 7.166851 9.050280
Ar 10.514460 5.585817 7.271922
Ar 16.474546 5.343559 11.784565
Ar 14.919172 15.228621 1.446544
Ar -7.556016 0.597096 21.231355
10
Step 30 (scaled positions)
Ar 7.030968 12.312914 0.011941
Ar 5.145930 2.500610 1.585038
Ar 3.190112 5.874895 6.767218
Ar 8.357431 7.172370 12.483198
Ar 3.548877 14.900561 0.455801
Ar 13.195756 7.932042 9.511882
Ar 13.571799 5.891484 3.527599
Ar 16.460523 5.350836 11.778454
Ar 14.918134 15.227494 1.445836
Ar -11.472400 -0.495874 24.223564
10
Step 40 (scaled positions)
Ar 6.977780 12.352175 0.019206
Ar 5.144338 2.503655 1.592889
Ar 3.200935 5.869417 6.770506
Ar 8.085251 7.191141 12.766238
Ar 3.602096 14.861405 0.448433
Ar 14.352572 8.699756 9.997976
Ar 16.619411 6.185901 -0.231055
Ar 16.436443 5.366364 11.765440
Ar 14.917087 15.226363 1.445127
Ar -15.388784 -1.588845 27.215773
10
Step 50 (scaled positions)
Ar 6.908492 12.403404 0.028518
Ar 5.142091 2.507832 1.602482
Ar 3.212777 5.862905 6.772497
Ar 7.814075 7.210089 13.048207
Ar 3.671416 14.810280 0.439017
Ar 15.517407 9.451977 10.492562
Ar 19.667015 6.480340 -3.989635
Ar 16.402984 5.397088 11.744484
Ar 14.916040 15.225231 1.444418
Ar -19.305168 -2.681816 30.207981
10
Step 60 (scaled positions)
Ar 6.825612 12.464739 0.039554
Ar 5.139182 2.513161 1.613849
Ar 3.225605 5.855337 6.773158
Ar 7.542846 7.229016 13.329632
Ar 3.754328 14.749049 0.427877
Ar 16.686080 10.186187 10.992891
Ar 22.714618 6.774780 -7.748215
Ar 16.365417 5.445748 11.717886
Ar 14.914994 15.224100 1.443709
Ar -23.221552 -3.774786 33.200190
10
Step 70 (scaled positions)
Ar 6.742250 12.526431 0.050653
Ar 5.135602 2.519664 1.627029
Ar 3.239389 5.846685 6.772437
Ar 7.271332 7.247853 13.610627
Ar 3.837722 14.687461 0.416675
Ar 17.854258 10.907136 11.495468
Ar 25.762222 7.069219 -11.506796
Ar 16.328344 5.507670 11.689040
Ar 14.913947 15.222969 1.442999
Ar -27.137936 -4.867757 36.192399
10
Step 80 (scaled positions)
Ar 6.695428 12.560935 0.057150
Ar 5.131335 2.527370 1.642069
Ar 3.254102 5.836914 6.770266
Ar 6.999576 7.266606 13.891211
Ar 3.884576 14.653061 0.410073
Ar 19.021021 11.622332 11.998366
Ar 28.809825 7.363658 -15.265376
Ar 16.292686 5.575344 11.659873
Ar 14.912900 15.221838 1.442290
Ar -31.054320 -5.960728 39.184608
10
Step 90 (scaled positions)
Ar 6.722633 12.540339 0.054354
Ar 5.126366 2.536315 1.659029
Ar 3.269719 5.825981 6.766558
Ar 6.727618 7.285281 14.171411
Ar 3.857403 14.673761 0.412765
Ar 20.187001 12.335661 12.501191
Ar 31.857429 7.658097 -19.023956
Ar 16.257811 5.644886 11.630779
Ar 14.911853 15.220707 1.441581
Ar -34.970704 -7.053698 42.176817
10
Step 100 (scaled positions)
Ar 6.800236 12.482220 0.045250
Ar 5.120673 2.546541 1.677979
Ar 3.286225 5.813835 6.761213
Ar 6.455495 7.303888 14.451260
Ar 3.779831 14.731985 0.421766
Ar 21.352671 13.048435 13.003953
Ar 34.905032 7.952536 -22.782536
Ar 16.223247 5.714984 11.601748
Ar 14.910807 15.219576 1.440872
Ar -38.887088 -8.146669 45.169026
10
Step 110 (scaled positions)
Ar 6.885147 12.418659 0.035233
Ar 5.114233 2.558100 1.699002
Ar 3.303586 5.800407 6.754051
Ar 6.183264 7.322444 14.730852
Ar 3.694953 14.795650 0.431679
Ar 22.518308 13.761156 13.506707
Ar 37.952636 8.246976 -26.541116
Ar 16.188715 5.785133 11.572725
Ar 14.909760 15.218445 1.440162
Ar -42.803472 -9.239639 48.161235
10
Step 120 (scaled positions)
Ar 6.958579 12.363651 0.026641
Ar 5.107014 2.571052 1.722197
Ar 3.321733 5.785590 6.744735
Ar 5.911026 7.340997 15.010427
Ar 3.621552 14.850762 0.440167
Ar 23.683945 14.473877 14.009461
Ar 41.000239 8.541415 -30.299697
Ar 16.154183 5.855282 11.543702
Ar 14.908713 15.217314 1.439453
Ar -46.719856 -10.332610 51.153444
10
Step 130 (scaled positions)
Ar 7.016155 12.320461 0.020015
Ar 5.098983 2.585468 1.747679
Ar 3.340693 5.769309 6.733132
Ar 5.638788 7.359550 15.290001
Ar 3.564008 14.894057 0.446690
Ar 24.849582 15.186598 14.512215
Ar 44.047843 8.835854 -34.058277
Ar 16.119651 5.925432 11.514679
Ar 14.907666 15.216183 1.438744
Ar -50.636240 -11.425581 54.145652
10
Step 140 (scaled positions)
Ar 7.057852 12.289181 0.015371
Ar 5.090095 2.601434 1.775589
Ar 3.360508 5.751477 6.719101
Ar 5.366550 7.378103 15.569575
Ar 3.522409 14.925465 0.451242
Ar 26.015219 15.899319 15.014970
Ar 47.095446 9.130293 -37.816857
Ar 16.085119 5.995581 11.485657
Ar 14.906555 15.215028 1.438023
Ar -54.552623 -12.518551 57.137861
10
Step 150 (scaled positions)
Ar 7.084664 12.269327 0.012651
Ar 5.080301 2.619051 1.806089
Ar 3.381230 5.731995 6.702480
Ar 5.094312 7.396656 15.849149
Ar 3.495985 14.945556 0.453922
Ar 27.180856 16.612041 15.517724
Ar 50.143050 9.424733 -41.575437
Ar 16.050587 6.065731 11.456634
Ar 14.905151 15.213764 1.437249
Ar -58.469007 -13.611522 60.130070
10
Step 160 (scaled positions)
Ar 7.097286 12.260408 0.011772
Ar 5.069540 2.638440 1.839377
Ar 3.402920 5.710741 6.683071
Ar 4.822074 7.415209 16.128724
Ar 3.484067 14.954831 0.454820
Ar 28.346493 17.324762 16.020478
Ar 53.190653 9.719172 -45.334017
Ar 16.016055 6.135880 11.427611
Ar 14.903432 15.212381 1.436418
Ar -62.385391 -14.704492 63.122279
10
Step 170 (scaled positions)
Ar 7.096057 12.262175 0.012688
Ar 5.057740 2.659746 1.875687
Ar 3.425649 5.687569 6.660639
Ar 4.549836 7.433762 16.408298
Ar 3.486318 14.953539 0.453980
Ar 29.512130 18.037483 16.523232
Ar 56.238257 10.013611 -49.092598
Ar 15.981523 6.206030 11.398588
Ar 14.901396 15.210878 1.435529
Ar -66.301775 -15.797463 66.114488
10
Step 180 (scaled positions)
Ar 7.080922 12.274668 0.015401
Ar 5.044811 2.683144 1.915304
Ar 3.449505 5.662306 6.634902
Ar 4.277598 7.452315 16.687872
Ar 3.502793 14.941642 0.451401
Ar 30.677768 18.750204 17.025986
Ar 59.285861 10.308050 -52.851178
Ar 15.946991 6.276179 11.369565
Ar 14.899041 15.209256 1.434582
Ar -70.218159 -16.890434 69.106697
10
Step 190 (scaled positions)
Ar 7.051442 12.298208 0.019959
Ar 5.030648 2.708848 1.958573
Ar 3.474596 5.634737 6.605511
Ar 4.005360 7.470868 16.967446
Ar 3.533930 14.918817 0.447035
Ar 31.843405 19.462925 17.528740
Ar 62.333464 10.602489 -56.609758
Ar 15.912459 6.346329 11.340542
Ar 14.896369 15.207514 1.433577
Ar -74.134543 -17.983404 72.098906
10
Step 200 (scaled positions)
Ar 7.006874 12.333338 0.026442
Ar 5.015120 2.737120 2.005921
Ar 3.501053 5.604599 6.572042
Ar 3.733121 7.489421 17.247020
Ar 3.580469 14.884518 0.440800
Ar 33.009042 20.175647 18.031494
Ar 65.381068 10.896929 -60.368338
Ar 15.877927 6.416478 11.311519
Ar 14.893383 15.205656 1.432515
Ar -78.050927 -19.076375 75.091115
10
Step 210 (scaled positions)
Ar 6.946387 12.380510 0.034902
Ar 4.998063 2.768286 2.057880
Ar 3.529038 5.571567 6.533963
Ar 3.460883 7.507974 17.526595
Ar 3.643097 14.838240 0.432619
Ar 34.174679 20.888368 18.534248
Ar 68.428671 11.191368 -64.126918
Ar 15.843395 6.486628 11.282496
Ar 14.890227 15.203735 1.431424
Ar -81.967311 -20.169346 78.083323
10
Step 220 (scaled positions)
Ar 6.870531 12.439118 0.045212
Ar 4.979274 2.802761 2.115120
Ar 3.558756 5.535227 6.490602
Ar 3.188645 7.526527 17.806169
Ar 3.721094 14.780526 0.422588
Ar 35.340316 21.601089 19.037002
Ar 71.476275 11.485807 -67.885499
Ar 15.808863 6.556777 11.253473
Ar 14.887071 15.201814 1.430332
Ar -85.883695 -21.262316 81.075532
10
Step 230 (scaled positions)
Ar 6.786184 12.504039 0.056541
Ar 4.958490 2.841072 2.178505
Ar 3.590468 5.495051 6.441096
Ar 2.916407 7.545080 18.085743
Ar 3.807582 14.716499 0.411538
Ar 36.505953 22.313810 19.539756
Ar 74.523878 11.780246 -71.644079
Ar 15.774331 6.626927 11.224450
Ar 14.883915 15.199894 1.429240
Ar -89.800079 -22.355287 84.067741
10
Step 240 (scaled positions)
Ar 6.718647 12.556479 0.065871
Ar 4.935374 2.883909 2.249160
Ar 3.624512 5.450348 6.384320
Ar 2.644169 7.563633 18.365317
Ar 3.877260 14.664952 0.402486
Ar 37.671590 23.026531 20.042510
Ar 77.571482 12.074686 -75.402659
Ar 15.739799 6.697076 11.195427
Ar 14.880759 15.197973 1.428148
Ar -93.716463 -23.448257 87.059950
10
Step 250 (scaled positions)
Ar 6.713415 12.562690 0.067825
Ar 4.909483 2.932181 2.328572
Ar 3.661331 5.400211 6.318787
Ar 2.371931 7.582186 18.644892
Ar 3.884634 14.659635 0.400811
Ar 38.837227 23.739253 20.545264
Ar 80.619085 12.369125 -79.161239
Ar 15.705267 6.767225 11.166404
Ar 14.877603 15.196053 1.427057
Ar -97.632846 -24.541228 90.052159
10
Step 260 (scaled positions)
Ar 6.776660 12.518136 0.061714
Ar 4.880238 2.987087 2.418711
Ar 3.701504 5.343440 6.242527
Ar 2.099693 7.600739 18.924466
Ar 3.823530 14.705083 0.407200
Ar 40.002864 24.451974 21.048018
Ar 83.666689 12.663564 -82.919819
Ar 15.670735 6.837375 11.137381
Ar 14.874447 15.194132 1.425965
Ar -101.549230 -25.634199 93.044368
10
Step 270 (scaled positions)
Ar 6.864041 12.455702 0.052775
Ar 4.846915 3.050150 2.522090
Ar 3.745755 5.278511 6.153026
Ar 1.827455 7.619292 19.204040
Ar 3.738290 14.768410 0.416419
Ar 41.168501 25.164695 21.550772
Ar 86.714292 12.958003 -86.678400
Ar 15.636203 6.907524 11.108358
Ar 14.871291 15.192212 1.424873
Ar -105.465614 -26.727169 96.036577
10
Step 280 (scaled positions)
Ar 6.945567 12.397599 0.044515
Ar 4.808801 3.122913 2.641275
Ar 3.794797 5.203883 6.047720
Ar 1.555217 7.637845 19.483614
Ar 3.658905 14.827407 0.424958
Ar 42.334139 25.877416 22.053527
Ar 89.761896 13.252442 -90.436980
Ar 15.601671 6.977674 11.079335
Ar 14.868135 15.190291 1.423781
Ar -109.381998 -27.820140 99.028785
10
Step 290 (scaled positions)
Ar 7.012358 12.350543 0.038001
Ar 4.766288 3.204694 2.775220
Ar 3.848238 5.120236 5.927654
Ar 1.282979 7.656398 19.763188
Ar 3.594396 14.875407 0.431775
Ar 43.499776 26.590137 22.556281
Ar 92.809499 13.546882 -94.195560
Ar 15.567139 7.047823 11.050312
Ar 14.864838 15.188320 1.422665
Ar -113.298382 -28.913110 102.020994
10
Step 300 (scaled positions)
Ar 7.063285 12.315559 0.033409
Ar 4.726285 3.281147 2.900348
Ar 3.899170 5.041918 5.816405
Ar 1.010740 7.674951 20.042763
Ar 3.546072 14.911451 0.436727
Ar 44.665413 27.302859 23.059035
Ar 95.857103 13.841321 -97.954140
Ar 15.532607 7.117973 11.021289
Ar 14.861221 15.186234 1.421492
Ar -117.214766 -30.006081 105.013203
10
Step 310 (scaled positions)
Ar 7.098941 12.292210 0.030664
Ar 4.712562 3.301411 2.932295
Ar 3.923821 5.019788 5.798337
Ar 0.738502 7.693504 20.322337
Ar 3.513348 14.935981 0.439891
Ar 45.831050 28.015580 23.561789
Ar 98.904706 14.135760 -101.712720
Ar 15.498075 7.188122 10.992266
Ar 14.857274 15.184026 1.420260
Ar -121.131150 -31.099052 108.005412
10
Step 320 (scaled positions)
Ar 7.120101 12.279924 0.029672
Ar 4.734098 3.245007 2.836442
Ar 3.913213 5.074327 5.908069
Ar 0.466264 7.712057 20.601911
Ar 3.495458 14.949573 0.441361
Ar 46.996687 28.728301 24.064543
Ar 101.952310 14.430199 -105.471301
Ar 15.463543 7.258272 10.963243
Ar 14.852988 15.181692 1.418968
Ar -125.047534 -32.192022 110.997621
10
Step 330 (scaled positions)
Ar 7.127268 12.278326 0.030371
Ar 4.765489 3.166825 2.704113
Ar 3.892750 5.150643 6.054277
Ar 0.194026 7.730610 20.881485
Ar 3.491905 14.952607 0.441203
Ar 48.162324 29.441022 24.567297
Ar 104.999914 14.724639 -109.229881
Ar 15.429011 7.328421 10.934220
Ar 14.848361 15.179230 1.417614
Ar -128.963918 -33.284993 113.989830
10
Step 340 (scaled positions)
Ar 7.120564 12.287317 0.032738
Ar 4.794269 3.094607 2.581869
Ar 3.874898 5.220996 6.190400
Ar -0.078212 7.749163 21.161060
Ar 3.502568 14.945182 0.439439
Ar 49.327961 30.153743 25.070051
Ar 108.047517 15.019078 -112.988461
Ar 15.394479 7.398571 10.905198
Ar 14.843386 15.176637 1.416198
Ar -132.880302 -34.377964 116.982039
10
Step 350 (scaled positions)
Ar 7.099716 12.307082 0.036797
Ar 4.818818 3.032176 2.476233
Ar 3.861278 5.281562 6.309916
Ar -0.350450 7.767716 21.440634
Ar 3.527723 14.927112 0.436046
Ar 50.493598 30.866465 25.572805
Ar 111.095121 15.313517 -116.747041
Ar 15.359947 7.468720 10.876175
Ar 14.838065 15.173915 1.414720
Ar -136.796686 -35.470934 119.974248
10
Step 360 (scaled positions)
Ar 7.064090 12.338068 0.042607
Ar 4.839689 2.978376 2.385304
Ar 3.851335 5.333497 6.414723
Ar -0.622688 7.786269 21.720208
Ar 3.568001 14.897949 0.430962
Ar 51.659235 31.579186 26.075559
Ar 114.142724 15.607956 -120.505621
Ar 15.325415 7.538870 10.847152
Ar 14.832397 15.171065 1.413181
Ar -140.713069 -36.563905 122.966456
10
Step 370 (scaled positions)
Ar 7.012879 12.380842 0.050247
Ar 4.857610 2.931603 2.306397
Ar 3.844342 5.378404 6.507509
Ar -0.894926 7.804822 21.999782
Ar 3.624207 14.857123 0.424109
Ar 52.824873 32.291907 26.578313
Ar 117.190328 15.902396 -124.264202
Ar 15.290883 7.609019 10.818129
Ar 14.826388 15.168090 1.411581
Ar -144.629453 -37.656875 125.958665
10
Step 380 (scaled positions)
Ar 6.945835 12.435551 0.059729
Ar 4.873166 2.890538 2.237288
Ar 3.839714 5.417604 6.590497
Ar -1.167164 7.823375 22.279357
Ar 3.696583 14.804482 0.415473
Ar 53.990510 33.004628 27.081067
Ar 120.237931 16.196835 -128.022782
Ar 15.256351 7.679168 10.789106
Ar 14.820041 15.164994 1.409922
Ar -148.545837 -38.749846 128.950874
10
Step 390 (scaled positions)
Ar 6.865992 12.499945 0.070706
Ar 4.886798 2.854175 2.176278
Ar 3.837010 5.452102 6.665386
Ar -1.439402 7.841928 22.558931
Ar 3.782085 14.742270 0.405398
Ar 55.156147 33.717349 27.583821
Ar 123.285535 16.491274 -131.781362
Ar 15.221819 7.749318 10.760083
Ar 14.813367 15.161786 1.408207
Ar -152.462221 -39.842817 131.943083
10
Step 400 (scaled positions)
Ar 6.788179 12.563177 0.081546
Ar 4.898836 2.821756 2.122084
Ar 3.835900 5.482655 6.733459
Ar -1.711641 7.860481 22.838505
Ar 3.865843 14.681316 0.395508
Ar 56.321784 34.430071 28.086575
Ar 126.333138 16.785713 -135.539942
Ar 15.187287 7.819467 10.731060
Ar 14.806407 15.158481 1.406444
Ar -156.378605 -40.935787 134.935292
10
Step 410 (scaled positions)
Ar 6.751651 12.596557 0.087973
Ar 4.909528 2.792705 2.073725
Ar 3.836136 5.509841 6.795697
Ar -1.983879 7.879034 23.118079
Ar 3.908364 14.650231 0.390039
Ar 57.487421 35.142792 28.589329
Ar 129.380742 17.080152 -139.298522
Ar 15.152755 7.889617 10.702037
Ar 14.799399 15.155160 1.404673
Ar -160.294989 -42.028758 137.927501
10
Step 420 (scaled positions)
Ar 6.790515 12.575483 0.086392
Ar 4.919066 2.766574 2.030442
Ar 3.837527 5.534106 6.852859
Ar -2.256117 7.897587 23.397653
Ar 3.875492 14.673598 0.392578
Ar 58.653058 35.855513 29.092084
Ar 132.428345 17.374592 -143.057103
Ar 15.118224 7.959766 10.673014
Ar 14.792392 15.151840 1.402902
Ar -164.211373 -43.121728 140.919710
10
Step 430 (scaled positions)
Ar 6.876168 12.520893 0.079933
Ar 4.927600 2.743014 1.991637
Ar 3.839921 5.555801 6.905543
Ar -2.528355 7.916140 23.677228
Ar 3.796006 14.730538 0.400024
Ar 59.818695 36.568234 29.594838
Ar 135.475949 17.669031 -146.815683
Ar 15.083692 8.029916 10.643991
Ar 14.785210 15.148463 1.401102
Ar -168.127757 -44.214699 143.911919
10
Step 440 (scaled positions)
Ar 6.966851 12.463033 0.073036
Ar 4.935247 2.721744 1.956832
Ar 3.843202 5.575206 6.954227
Ar -2.800593 7.934693 23.956802
Ar 3.711822 14.790859 0.407963
Ar 60.984332 37.280956 30.097592
Ar 138.523552 17.963470 -150.574263
Ar 15.049160 8.100065 10.614968
Ar 14.777697 15.144975 1.399247
Ar -172.044141 -45.307670 146.904127
10
Step 450 (scaled positions)
Ar 7.045459 12.414175 0.067476
Ar 4.942105 2.702537 1.925641
Ar 3.847272 5.592547 6.999297
Ar -3.072831 7.953246 24.236376
Ar 3.640063 14.842297 0.414625
Ar 62.149969 37.993677 30.600346
Ar 141.571156 18.257909 -154.332843
Ar 15.014628 8.170215 10.585945
Ar 14.769833 15.141368 1.397332
Ar -175.960525 -46.400640 149.896336
10
Step 460 (scaled positions)
Ar 7.108209 12.377017 0.063634
Ar 4.948251 2.685210 1.897749
Ar 3.852055 5.608009 7.041068
Ar -3.345069 7.971799 24.515950
Ar 3.584530 14.882166 0.419632
Ar 63.315606 38.706398 31.103100
Ar 144.618759 18.552349 -158.091423
Ar 14.980096 8.240364 10.556922
Ar 14.761601 15.137630 1.395354
Ar -179.876909 -47.493611 152.888545
10
Step 470 (scaled positions)
Ar 7.155170 12.351496 0.061492
Ar 4.953749 2.669609 1.872895
Ar 3.857485 5.621745 7.079801
Ar -3.617307 7.990353 24.795525
Ar 3.545170 14.910536 0.423006
Ar 64.481244 39.419119 31.605854
Ar 147.666363 18.846788 -161.850004
Ar 14.945564 8.310514 10.527899
Ar 14.752985 15.133754 1.393309
Ar -183.793292 -48.586582 155.880754
10
Step 480 (scaled positions)
Ar 7.187140 12.337031 0.060962
Ar 4.958653 2.655607 1.850861
Ar 3.863509 5.633881 7.115713
Ar -3.889545 8.008906 25.075099
Ar 3.521201 14.927996 0.424838
Ar 65.646881 40.131840 32.108608
Ar 150.713967 19.141227 -165.608584
Ar 14.911032 8.380663 10.498876
Ar 14.743970 15.129732 1.391194
Ar -187.709676 -49.679552 158.872963
10
Step 490 (scaled positions)
Ar 7.204781 12.333135 0.061967
Ar 4.963008 2.643099 1.831468
Ar 3.870082 5.644524 7.148985
Ar -4.161783 8.027459 25.354673
Ar 3.511970 14.935039 0.425207
Ar 66.812518 40.844562 32.611362
Ar 153.761570 19.435666 -169.367164
Ar 14.876500 8.450812 10.469853
Ar 14.734545 15.125558 1.389007
Ar -191.626060 -50.772523 161.865172
10
Step 500 (scaled positions)
Ar 7.208403 12.339566 0.064466
Ar 4.966851 2.631995 1.814563
Ar 3.877167 5.653762 7.179770
Ar -4.434022 8.046012 25.634247
Ar 3.517177 14.931910 0.424156
Ar 67.978155 41.557283 33.114116
Ar 156.809174 19.730105 -173.125744
Ar 14.841968 8.520962 10.440830
Ar 14.724701 15.121230 1.386746
Ar -195.542444 -51.865493 164.857381
10
Step 510 (scaled positions)
Ar 7.197915 12.356362 0.068455
Ar 4.970216 2.622220 1.800018
Ar 3.884731 5.661672 7.208194
Ar -4.706260 8.064565 25.913821
Ar 3.536919 14.918574 0.421689
Ar 69.143792 42.270004 33.616870
Ar 159.856777 20.024545 -176.884324
Ar 14.807436 8.591111 10.411807
Ar 14.714432 15.116744 1.384411
Ar -199.458828 -52.958464 167.849589
10
Step 520 (scaled positions)
Ar 7.172834 12.383828 0.073969
Ar 4.973128 2.613711 1.787724
Ar 3.892747 5.668315 7.234367
Ar -4.978498 8.083118 26.193396
Ar 3.571683 14.894724 0.417773
Ar 70.309429 42.982725 34.119624
Ar 162.904381 20.318984 -180.642905
Ar 14.772904 8.661261 10.382784
Ar 14.703734 15.112100 1.382000
Ar -203.375212 -54.051435 170.841798
10
Step 530 (scaled positions)
Ar 7.132370 12.422473 0.081067
Ar 4.975611 2.606414 1.777591
Ar 3.901192 5.673747 7.258378
Ar -5.250736 8.101671 26.472970
Ar 3.622258 14.859851 0.412347
Ar 71.475066 43.695446 34.622378
Ar 165.951984 20.613423 -184.401485
Ar 14.738372 8.731410 10.353762
Ar 14.692608 15.107302 1.379515
Ar -207.291596 -55.144405 173.834007
10
Step 540 (scaled positions)
Ar 7.075814 12.472739 0.089797
Ar 4.977686 2.600284 1.769545
Ar 3.910046 5.678012 7.280304
Ar -5.522974 8.120224 26.752544
Ar 3.689352 14.813508 0.405362
Ar 72.640703 44.408168 35.125132
Ar 168.999588 20.907862 -188.160065
Ar 14.703840 8.801560 10.324739
Ar 14.681056 15.102352 1.376957
Ar -211.207980 -56.237376 176.826216
10
Step 550 (scaled positions)
Ar 7.004008 12.533980 0.100057
Ar 4.979368 2.595284 1.763521
Ar 3.919291 5.681146 7.300206
Ar -5.795212 8.138777 27.032118
Ar 3.772113 14.756334 0.396918
Ar 73.806340 45.120889 35.627886
Ar 172.047191 21.202302 -191.918645
Ar 14.669308 8.871709 10.295716
Ar 14.669085 15.097257 1.374328
Ar -215.124364 -57.330346 179.818425
10
Step 560 (scaled positions)
Ar 6.924488 12.600954 0.111136
Ar 4.980673 2.591384 1.759470
Ar 3.928915 5.683181 7.318136
Ar -6.067450 8.157330 27.311693
Ar 3.862999 14.693565 0.387723
Ar 74.971977 45.833610 36.130640
Ar 175.094795 21.496741 -195.677225
Ar 14.634776 8.941859 10.266693
Ar 14.656705 15.092026 1.371631
Ar -219.040748 -58.423317 182.810634
10
Step 570 (scaled positions)
Ar 6.864373 12.655094 0.120573
Ar 4.981612 2.588558 1.757352
Ar 3.938904 5.684141 7.334134
Ar -6.339688 8.175883 27.591267
Ar 3.934877 14.643757 0.380235
Ar 76.137615 46.546331 36.633395
Ar 178.142398 21.791180 -199.435806
Ar 14.600244 9.012008 10.237670
Ar 14.643927 15.086666 1.368869
Ar -222.957132 -59.516288 185.802843
10
Step 580 (scaled positions)
Ar 6.870357 12.664789 0.124262
Ar 4.982196 2.586788 1.757135
Ar 3.949249 5.684046 7.348229
Ar -6.611926 8.194436 27.870841
Ar 3.941048 14.638518 0.378558
Ar 77.303252 47.259052 37.136149
Ar 181.190002 22.085619 -203.194386
Ar 14.565712 9.082158 10.208647
Ar 14.630756 15.081184 1.366044
Ar -226.873516 -60.609258 188.795052
10
Step 590 (scaled positions)
Ar 6.945848 12.628014 0.122005
Ar 4.982432 2.586060 1.758799
Ar 3.959941 5.682909 7.360444
Ar -6.884164 8.212989 28.150415
Ar 3.878113 14.679873 0.382891
Ar 78.468889 47.971774 37.638903
Ar 184.237605 22.380058 -206.952966
Ar 14.531180 9.152307 10.179624
Ar 14.617186 15.075576 1.363155
Ar -230.789899 -61.702229 191.787260
10
Step 600 (scaled positions)
Ar 7.044771 12.575952 0.117848
Ar 4.982327 2.586364 1.762331
Ar 3.970974 5.680739 7.370792
Ar -7.156402 8.231542 28.429990
Ar 3.792171 14.736652 0.389193
Ar 79.634526 48.684495 38.141657
Ar 187.285209 22.674498 -210.711546
Ar 14.496648 9.222457 10.150601
Ar 14.603191 15.069833 1.360197
Ar -234.706283 -62.795200 194.779469
10
Step 610 (scaled positions)
Ar 7.137340 12.528552 0.114329
Ar 4.981886 2.587697 1.767726
Ar 3.982343 5.677541 7.379276
Ar -7.428641 8.250095 28.709564
Ar 3.713038 14.788918 0.394931
Ar 80.800163 49.397216 38.644411
Ar 190.332812 22.968937 -214.470126
Ar 14.462116 9.292606 10.121578
Ar 14.588739 15.063939 1.357164
Ar -238.622667 -63.888170 197.771678
10
Step 620 (scaled positions)
Ar 7.214778 12.491630 0.112172
Ar 4.981112 2.590058 1.774988
Ar 3.994044 5.673315 7.385892
Ar -7.700879 8.268648 28.989138
Ar 3.649527 14.830875 0.399390
Ar 81.965800 50.109937 39.147165
Ar 193.380416 23.263376 -218.228707
Ar 14.427584 9.362755 10.092555
Ar 14.573797 15.057879 1.354050
Ar -242.539051 -64.981141 200.763887
10
Step 630 (scaled positions)
Ar 7.275891 12.465945 0.111461
Ar 4.980008 2.593451 1.784131
Ar 4.006077 5.668056 7.390629
Ar -7.973117 8.287201 29.268712
Ar 3.602866 14.861776 0.402492
Ar 83.131437 50.822658 39.649919
Ar 196.428020 23.557815 -221.987287
Ar 14.393052 9.432905 10.063532
Ar 14.558331 15.051635 1.350847
Ar -246.455435 -66.074111 203.756096
10
Step 640 (scaled positions)
Ar 7.321325 12.451044 0.112130
Ar 4.978574 2.597887 1.795174
Ar 4.018439 5.661754 7.393465
Ar -8.245355 8.305754 29.548286
Ar 3.572436 14.882089 0.404307
Ar 84.297074 51.535380 40.152673
Ar 199.475623 23.852255 -225.745867
Ar 14.358520 9.503054 10.034509
Ar 14.542312 15.045196 1.347550
Ar -250.371819 -67.167082 206.748305
10
Step 650 (scaled positions)
Ar 7.351887 12.446372 0.114102
Ar 4.976809 2.603380 1.808147
Ar 4.031133 5.654396 7.394370
Ar -8.517593 8.324307 29.827861
Ar 3.557457 14.892382 0.404917
Ar 85.462711 52.248101 40.655427
Ar 202.523227 24.146694 -229.504447
Ar 14.323988 9.573204 10.005486
Ar 14.525714 15.038548 1.344153
Ar -254.288203 -68.260053 209.740514
10
Step 660 (scaled positions)
Ar 7.368097 12.451558 0.117324
Ar 4.974710 2.609949 1.823091
Ar 4.044160 5.645962 7.393305
Ar -8.789831 8.342860 30.107435
Ar 3.557434 14.893034 0.404382
Ar 86.628348 52.960822 41.158181
Ar 205.570830 24.441133 -233.263027
Ar 14.289456 9.643353 9.976463
Ar 14.508512 15.031683 1.340654
Ar -258.204587 -69.353023 212.732723
10
Step 670 (scaled positions)
Ar 7.370073 12.466488 0.121772
Ar 4.972273 2.617619 1.840055
Ar 4.057525 5.636426 7.390220
Ar -9.062069 8.361413 30.387009
Ar 3.572267 14.884168 0.402727
Ar 87.793986 53.673543 41.660935
Ar 208.618434 24.735572 -237.021608
Ar 14.254924 9.713503 9.947440
Ar 14.490688 15.024593 1.337047
Ar -262.120971 -70.445994 215.724931
10
Step 680 (scaled positions)
Ar 7.357524 12.491300 0.127451
Ar 4.969494 2.626421 1.859101
Ar 4.071232 5.625759 7.385053
Ar -9.334307 8.379966 30.666583
Ar 3.602265 14.865649 0.399951
Ar 88.959623 54.386264 42.163689
Ar 211.666037 25.030012 -240.780188
Ar 14.220392 9.783652 9.918417
Ar 14.472225 15.017273 1.333332
Ar -266.037355 -71.538964 218.717140
10
Step 690 (scaled positions)
Ar 7.329773 12.526364 0.134390
Ar 4.966364 2.636394 1.880304
Ar 4.085291 5.613921 7.377730
Ar -9.606545 8.398519 30.946158
Ar 3.648114 14.837109 0.396025
Ar 90.125260 55.098986 42.666443
Ar 214.713641 25.324451 -244.538768
Ar 14.185860 9.853802 9.889394
Ar 14.453112 15.009722 1.329507
Ar -269.953739 -72.631935 221.709349
10
Step 700 (scaled positions)
Ar 7.285948 12.572155 0.142627
Ar 4.962874 2.647582 1.903751
Ar 4.099709 5.600867 7.368161
Ar -9.878783 8.417072 31.225732
Ar 3.710693 14.798069 0.390910
Ar 91.290897 55.811707 43.169197
Ar 217.761244 25.618890 -248.297348
Ar 14.151328 9.923951 9.860371
Ar 14.433343 15.001944 1.325571
Ar -273.870122 -73.724906 224.701558
10
Step 710 (scaled positions)
Ar 7.225719 12.628791 0.152157
Ar 4.959013 2.660042 1.929551
Ar 4.114498 5.586542 7.356241
Ar -10.151022 8.435625 31.505306
Ar 3.790332 14.748409 0.384611
Ar 92.456534 56.524428 43.671952
Ar 220.808848 25.913329 -252.055928
Ar 14.116796 9.994101 9.831348
Ar 14.412918 14.993942 1.321527
Ar -277.786506 -74.817876 227.693767
10
Step 720 (scaled positions)
Ar 7.152050 12.694338 0.162748
Ar 4.954766 2.673837 1.957827
Ar 4.129673 5.570881 7.341843
Ar -10.423260 8.454178 31.784880
Ar 3.884060 14.690050 0.377356
Ar 93.622171 57.237149 44.174706
Ar 223.856451 26.207768 -255.814509
Ar 14.082264 10.064250 9.802326
Ar 14.391844 14.985727 1.317378
Ar -281.702890 -75.910847 230.685976
10
Step 730 (scaled positions)
Ar 7.079919 12.759567 0.173391
Ar 4.950117 2.689046 1.988730
Ar 4.145250 5.553807 7.324819
Ar -10.695498 8.472731 32.064454
Ar 3.976888 14.632211 0.370152
Ar 94.787808 57.949870 44.677460
Ar 226.904055 26.502208 -259.573089
Ar 14.047732 10.134400 9.773303
Ar 14.370132 14.977309 1.313126
Ar -285.619274 -77.003818 233.678185
10
Step 740 (scaled positions)
Ar 7.050095 12.799905 0.181511
Ar 4.945045 2.705760 2.022437
Ar 4.161250 5.535227 7.304992
Ar -10.967736 8.491284 32.344029
Ar 4.028038 14.599455 0.365568
Ar 95.953445 58.662592 45.180214
Ar 229.951658 26.796647 -263.331669
Ar 14.013200 10.204549 9.744280
Ar 14.347791 14.968701 1.308777
Ar -289.535658 -78.096788 236.670394
10
Step 750 (scaled positions)
Ar 7.100210 12.793222 0.184904
Ar 4.939526 2.724089 2.059158
Ar 4.177698 5.515033 7.282149
Ar -11.239974 8.509837 32.623603
Ar 3.999885 14.613909 0.365810
Ar 97.119082 59.375313 45.682968
Ar 232.999262 27.091086 -267.090249
Ar 13.978668 10.274698 9.715257
Ar 14.324815 14.959902 1.304329
Ar -293.452042 -79.189759 239.662602
10
Step 760 (scaled positions)
Ar 7.202051 12.756692 0.185400
Ar 4.933530 2.744165 2.099149
Ar 4.194622 5.493092 7.256036
Ar -11.512212 8.528390 32.903177
Ar 3.920683 14.658414 0.369054
Ar 98.284720 60.088034 46.185722
Ar 236.046866 27.385525 -270.848829
Ar 13.944136 10.344848 9.686234
Ar 14.301161 14.950901 1.299776
Ar -297.368426 -80.282729 242.654811
10
Step 770 (scaled positions)
Ar 7.310665 12.716859 0.185664
Ar 4.927022 2.766146 2.142716
Ar 4.212058 5.469245 7.226349
Ar -11.784450 8.546943 33.182751
Ar 3.835453 14.706452 0.372647
Ar 99.450357 60.800755 46.688476
Ar 239.094469 27.679965 -274.607410
Ar 13.909604 10.414997 9.657211
Ar 14.276762 14.941668 1.295106
Ar -301.284810 -81.375700 245.647020
10
Step 780 (scaled positions)
Ar 7.407121 12.684716 0.186756
Ar 4.919958 2.790227 2.190232
Ar 4.230050 5.443298 7.192712
Ar -12.056688 8.565496 33.462326
Ar 3.763208 14.747065 0.375545
Ar 100.615994 61.513476 47.191230
Ar 242.142073 27.974404 -278.365990
Ar 13.875073 10.485147 9.628188
Ar 14.251536 14.932171 1.290304
Ar -305.201194 -82.468671 248.639229
10
Step 790 (scaled positions)
Ar 7.487142 12.662690 0.188893
Ar 4.912287 2.816647 2.242156
Ar 4.248649 5.415014 7.154667
Ar -12.328926 8.584049 33.741900
Ar 3.708311 14.777861 0.377543
Ar 101.781631 62.226198 47.693984
Ar 245.189676 28.268843 -282.124570
Ar 13.840541 10.555296 9.599165
Ar 14.225396 14.922375 1.285355
Ar -309.117578 -83.561641 251.631438
10
Step 800 (scaled positions)
Ar 7.550786 12.650726 0.192061
Ar 4.903943 2.845702 2.299064
Ar 4.267921 5.384093 7.111638
Ar -12.601164 8.602602 34.021474
Ar 3.670790 14.798930 0.378674
Ar 102.947268 62.938919 48.196738
Ar 248.237280 28.563282 -285.883150
Ar 13.806009 10.625446 9.570142
Ar 14.198259 14.912244 1.280243
Ar -313.033962 -84.654612 254.623647
10
Step 810 (scaled positions)
Ar 7.598960 12.648294 0.196201
Ar 4.894846 2.877768 2.361680
Ar 4.287947 5.350162 7.062901
Ar -12.873403 8.621155 34.301048
Ar 3.649821 14.810833 0.379009
Ar 104.112905 63.651640 48.699492
Ar 251.284883 28.857721 -289.641730
Ar 13.771477 10.695595 9.541119
Ar 14.170039 14.901745 1.274955
Ar -316.950345 -85.747582 257.615856
10
Step 820 (scaled positions)
Ar 7.632458 12.654935 0.201267
Ar 4.884891 2.913325 2.430936
Ar 4.308829 5.312739 7.007523
Ar -13.145641 8.639708 34.580622
Ar 3.644691 14.814063 0.378610
Ar 105.278542 64.364361 49.202246
Ar 254.332487 29.152161 -293.400311
Ar 13.736945 10.765745 9.512096
Ar 14.140656 14.890847 1.269475
Ar -320.866729 -86.840553 260.608064
10
Step 830 (scaled positions)
Ar 7.651706 12.670389 0.207224
Ar 4.873949 2.953001 2.508048
Ar 4.330700 5.271198 6.944290
Ar -13.417879 8.658261 34.860197
Ar 3.655052 14.808906 0.377523
Ar 106.444179 65.077082 49.705000
Ar 257.380090 29.446600 -297.158891
Ar 13.702413 10.835894 9.483073
Ar 14.110033 14.879524 1.263792
Ar -324.783113 -87.933524 263.600273
10
Step 840 (scaled positions)
Ar 7.656706 12.694617 0.214059
Ar 4.861849 2.997620 2.594622
Ar 4.353728 5.224713 6.871595
Ar -13.690117 8.676814 35.139771
Ar 3.680972 14.795423 0.375772
Ar 107.609816 65.789804 50.207754
Ar 260.427694 29.741039 -300.917471
Ar 13.667881 10.906044 9.454050
Ar 14.078098 14.867751 1.257895
Ar -328.699497 -89.026494 266.592482
10
Step 850 (scaled positions)