27
Lattice="1.120951360747687e-09 0 0 0 1.120951360747687e-09 0 0 0 1.120951360747687e-09" Properties=species:S:1:pos:R:3 Step=0
Ar 1.855789 1.780069 1.877464
Ar 1.856160 1.853722 5.573066
Ar 1.813272 1.890548 9.303861
Ar 1.824749 5.626676 1.873655
Ar 1.800335 5.606940 5.545878
Ar 1.921597 5.670864 9.340126
Ar 1.932962 9.262786 1.867777
Ar 1.786491 9.327819 5.530796
Ar 1.798399 9.359427 9.290111
Ar 5.531401 1.816065 1.840267
Ar 5.598653 1.813254 5.631175
Ar 5.601604 1.869445 9.319800
Ar 5.659408 5.619872 1.805057
Ar 5.640860 5.690537 5.604673
Ar 5.677450 5.574849 9.353998
Ar 5.591748 9.329026 1.919892
Ar 5.612092 9.426945 5.612325
Ar 5.526723 9.316268 9.407554
Ar 9.323956 1.780004 1.821236
Ar 9.260460 1.959469 5.692512
Ar 9.397179 1.887187 9.390735
Ar 9.279582 5.566060 1.872599
Ar 9.315771 5.520077 5.694884
Ar 9.330415 5.605540 9.308997
Ar 9.296264 9.320049 1.930104
Ar 9.384973 9.318948 5.514010
Ar 9.396736 9.298270 9.356635
27
Lattice="1.120951360747687e-09 0 0 0 1.120951360747687e-09 0 0 0 1.120951360747687e-09" Properties=species:S:1:pos:R:3 Step=1
Ar 1.807961 1.818599 1.872886
Ar 1.856202 1.886077 5.572997
Ar 1.833154 1.892393 9.307788
Ar 1.830323 5.558378 1.871188
Ar 1.836858 5.573446 5.552164
Ar 1.924906 5.668434 9.333480
Ar 1.930535 9.268058 1.748243
Ar 1.737690 9.326543 5.647561
Ar 1.779379 9.368268 9.292248
Ar 5.537615 1.821621 1.846234
Ar 5.589404 1.885375 5.647087
Ar 5.603072 1.889995 9.287554
Ar 5.639112 5.636408 1.796179
Ar 5.521901 5.602807 5.597835
Ar 5.670583 5.546184 9.370690
Ar 5.641188 9.287823 1.919078
Ar 5.674011 9.506181 5.549672
Ar 5.529795 9.314251 9.473121
Ar 9.343231 1.788310 1.843491
Ar 9.266382 1.862586 5.677378
Ar 9.379216 1.879000 9.386353
Ar 9.291182 5.562563 1.860213
Ar 9.422328 5.538692 5.682131
Ar 9.341713 5.608592 9.376484
Ar 9.287277 9.312000 1.913315
Ar 9.337163 9.341724 5.535517
Ar 9.387287 9.306184 9.348731
27
Lattice="1.120951360747687e-09 0 0 0 1.120951360747687e-09 0 0 0 1.120951360747687e-09" Properties=species:S:1:pos:R:3 Step=2
Ar 1.762406 1.854330 1.869480
Ar 1.856414 1.914903 5.570636
Ar 1.855953 1.894470 9.313083
Ar 1.837900 5.494826 1.870737
Ar 1.871952 5.543560 5.556015
Ar 1.928741 5.668255 9.324476
Ar 1.929715 9.272603 1.675011
Ar 1.700675 9.322470 5.719265
Ar 1.759386 9.380621 9.295443
Ar 5.542203 1.825173 1.852295
Ar 5.578538 1.952937 5.664027
Ar 5.605189 1.906505 9.255599
Ar 5.616710 5.653520 1.787805
Ar 5.442388 5.540962 5.592583
Ar 5.666340 5.519023 9.383969
Ar 5.687974 9.243183 1.921928
Ar 5.724051 9.564755 5.499688
Ar 5.531070 9.311805 9.522730
Ar 9.360324 1.797610 1.870079
Ar 9.271894 1.779388 5.660255
Ar 9.358993 1.870643 9.381113
Ar 9.301333 5.558175 1.852382
Ar 9.487698 5.556645 5.670818
Ar 9.353702 5.611434 9.437512
Ar 9.284902 9.302490 1.896447
Ar 9.300714 9.358882 5.556933
Ar 9.373884 9.314938 9.337010
27
Lattice="1.120951360747687e-09 0 0 0 1.120951360747687e-09 0 0 0 1.120951360747687e-09" Properties=species:S:1:pos:R:3 Step=3
Ar 1.715065 1.883832 1.865626
Ar 1.855358 1.937908 5.565101
Ar 1.887200 1.897964 9.321560
Ar 1.850346 5.432321 1.870924
Ar 1.882165 5.517535 5.557203
Ar 1.934533 5.674030 9.309699
Ar 1.934230 9.276089 1.627720
Ar 1.670871 9.313349 5.766450
Ar 1.733135 9.403301 9.299988
Ar 5.544794 1.825112 1.859912
Ar 5.567093 1.991475 5.684165
Ar 5.609197 1.914991 9.222387
Ar 5.585994 5.669467 1.779237
Ar 5.387789 5.505697 5.586411
Ar 5.666840 5.490706 9.393287
Ar 5.738987 9.185441 1.928113
Ar 5.761535 9.621663 5.456310
Ar 5.528276 9.308468 9.562579
Ar 9.371980 1.809294 1.907897
Ar 9.278756 1.700994 5.637672
Ar 9.332731 1.861434 9.374547
Ar 9.309760 5.551535 1.854427
Ar 9.531828 5.576580 5.660662
Ar 9.371066 5.614872 9.497557
Ar 9.297013 9.289653 1.875887
Ar 9.290926 9.361485 5.583312
Ar 9.350400 9.326369 9.316219
27
Lattice="1.120951360747687e-09 0 0 0 1.120951360747687e-09 0 0 0 1.120951360747687e-09" Properties=species:S:1:pos:R:3 Step=4
Ar 1.668596 1.887580 1.858464
Ar 1.850833 1.942189 5.555122
Ar 1.933246 1.908402 9.336078
Ar 1.871198 5.380517 1.868114
Ar 1.843497 5.499173 5.552440
Ar 1.946422 5.696493 9.283012
Ar 1.955384 9.276218 1.612408
Ar 1.656008 9.293263 5.785790
Ar 1.690181 9.451490 9.305151
Ar 5.542035 1.815318 1.870705
Ar 5.557100 1.980032 5.707356
Ar 5.618124 1.902679 9.195708
Ar 5.538205 5.668909 1.768993
Ar 5.364925 5.519184 5.576069
Ar 5.680232 5.461874 9.392981
Ar 5.803299 9.104339 1.934576
Ar 5.777856 9.688949 5.421703
Ar 5.513019 9.302748 9.588699
Ar 9.363793 1.823582 1.964192
Ar 9.288283 1.632877 5.608814
Ar 9.299137 1.853395 9.367535
Ar 9.311692 5.540204 1.880550
Ar 9.549274 5.599405 5.655164
Ar 9.402478 5.620061 9.553983
Ar 9.343206 9.272695 1.847368
Ar 9.317095 9.326781 5.616913
Ar 9.304854 9.341497 9.278198
27
Lattice="1.120951360747687e-09 0 0 0 1.120951360747687e-09 0 0 0 1.120951360747687e-09" Properties=species:S:1:pos:R:3 Step=5
Ar 1.647681 1.842544 1.847738
Ar 1.844425 1.911229 5.545834
Ar 1.974910 1.935197 9.350813
Ar 1.887100 5.375253 1.856209
Ar 1.817303 5.489540 5.537333
Ar 1.967522 5.741505 9.251068
Ar 2.002336 9.268015 1.645726
Ar 1.680094 9.264053 5.762233
Ar 1.633598 9.522107 9.311639
Ar 5.528927 1.790130 1.881093
Ar 5.548355 2.003446 5.722078
Ar 5.631955 1.864030 9.204165
Ar 5.490007 5.622802 1.755677
Ar 5.383774 5.590599 5.563345
Ar 5.713076 5.446065 9.375236
Ar 5.870041 9.032488 1.934257
Ar 5.765111 9.734450 5.415007
Ar 5.477723 9.293628 9.581926
Ar 9.322921 1.831790 2.011004
Ar 9.295907 1.614086 5.595782
Ar 9.281103 1.856125 9.367365
Ar 9.297323 5.527576 1.927416
Ar 9.511401 5.608464 5.665607
Ar 9.444215 5.625988 9.577365
Ar 9.421249 9.262050 1.819927
Ar 9.327050 9.263588 5.633199
Ar 9.245486 9.352212 9.237374
27
Lattice="1.120951360747687e-09 0 0 0 1.120951360747687e-09 0 0 0 1.120951360747687e-09" Properties=species:S:1:pos:R:3 Step=6
Ar 1.651647 1.790605 1.839715
Ar 1.840924 1.866592 5.544284
Ar 1.986774 1.977669 9.354309
Ar 1.874974 5.402497 1.836546
Ar 1.835261 5.473051 5.517013
Ar 1.993294 5.791922 9.230914
Ar 2.059820 9.252681 1.691549
Ar 1.722350 9.238966 5.727201
Ar 1.583760 9.580411 9.320844
Ar 5.508937 1.756862 1.886786
Ar 5.543240 2.099310 5.722892
Ar 5.645231 1.828123 9.242263
Ar 5.471736 5.553076 1.739542
Ar 5.413006 5.672513 5.554074
Ar 5.752304 5.445360 9.349894
Ar 5.921925 9.006100 1.926956
Ar 5.743008 9.743848 5.432269
Ar 5.433494 9.281520 9.551822
Ar 9.280395 1.827905 2.014279
Ar 9.295790 1.640545 5.615682
Ar 9.297797 1.870751 9.377600
Ar 9.271852 5.522190 1.955049
Ar 9.452132 5.589259 5.691911
Ar 9.478256 5.630342 9.567282
Ar 9.485087 9.265984 1.806107
Ar 9.302565 9.239345 5.612366
Ar 9.202214 9.351824 9.221363
27
Lattice="1.120951360747687e-09 0 0 0 1.120951360747687e-09 0 0 0 1.120951360747687e-09" Properties=species:S:1:pos:R:3 Step=7
Ar 1.654118 1.762738 1.836048
Ar 1.840397 1.823091 5.548173
Ar 1.980055 2.036848 9.347092
Ar 1.835163 5.425084 1.810296
Ar 1.839184 5.437687 5.494222
Ar 2.025969 5.847350 9.218507
Ar 2.125710 9.232704 1.718621
Ar 1.750385 9.214425 5.712432
Ar 1.536076 9.627824 9.332466
Ar 5.483925 1.715050 1.892064
Ar 5.545753 2.180031 5.719551
Ar 5.659623 1.806375 9.281899
Ar 5.474175 5.489878 1.720306
Ar 5.426371 5.751746 5.545105
Ar 5.794632 5.445833 9.324397
Ar 5.972900 8.999613 1.916031
Ar 5.726930 9.763027 5.453500
Ar 5.382025 9.263744 9.519082
Ar 9.254415 1.816984 1.991030
Ar 9.289008 1.677069 5.654357
Ar 9.338553 1.889905 9.395251
Ar 9.241936 5.524733 1.959451
Ar 9.414518 5.550805 5.727554
Ar 9.509568 5.635003 9.553363
Ar 9.534442 9.278504 1.799166
Ar 9.294940 9.255903 5.565787
Ar 9.168023 9.345376 9.221980
27
Lattice="1.120951360747687e-09 0 0 0 1.120951360747687e-09 0 0 0 1.120951360747687e-09" Properties=species:S:1:pos:R:3 Step=8
Ar 1.642204 1.758972 1.835685
Ar 1.843194 1.782279 5.553494
Ar 1.971225 2.109237 9.333298
Ar 1.780304 5.427971 1.779113
Ar 1.818367 5.385134 5.469153
Ar 2.068006 5.910851 9.206307
Ar 2.199051 9.211769 1.720338
Ar 1.754544 9.183732 5.726327
Ar 1.485008 9.676500 9.347065
Ar 5.455967 1.664924 1.900763
Ar 5.554039 2.222450 5.720658
Ar 5.677416 1.795866 9.305945
Ar 5.477928 5.446350 1.701009
Ar 5.414338 5.823411 5.532700
Ar 5.840291 5.438995 9.300846
Ar 6.032095 8.989130 1.906394
Ar 5.724803 9.815833 5.464719
Ar 5.323793 9.239799 9.495880
Ar 9.242712 1.805694 1.965570
Ar 9.278023 1.700685 5.693186
Ar 9.387886 1.906233 9.416290
Ar 9.210491 5.533809 1.957578
Ar 9.407837 5.509440 5.764958
Ar 9.545909 5.642538 9.554237
Ar 9.585036 9.292904 1.791289
Ar 9.315566 9.279599 5.508496
Ar 9.128530 9.337888 9.223455
27
Lattice="1.120951360747687e-09 0 0 0 1.120951360747687e-09 0 0 0 1.120951360747687e-09" Properties=species:S:1:pos:R:3 Step=9
Ar 1.618459 1.763939 1.836445
Ar 1.849692 1.742329 5.556779
Ar 1.973543 2.183190 9.318676
Ar 1.727711 5.414631 1.747274
Ar 1.799093 5.327817 5.442412
Ar 2.116218 5.978464 9.189826
Ar 2.270820 9.194664 1.708698
Ar 1.746339 9.145561 5.756959
Ar 1.430842 9.734100 9.365571
Ar 5.429679 1.614590 1.912410
Ar 5.562327 2.265412 5.728352
Ar 5.697556 1.787329 9.311922
Ar 5.467434 5.421153 1.685549
Ar 5.385225 5.879426 5.517099
Ar 5.886730 5.424069 9.279695
Ar 6.097887 8.965124 1.902217
Ar 5.735768 9.890165 5.461077
Ar 5.265454 9.213628 9.486565
Ar 9.233438 1.800553 1.955232
Ar 9.266682 1.697422 5.718615
Ar 9.429732 1.914264 9.435106
Ar 9.179733 5.546410 1.966128
Ar 9.415945 5.480428 5.795959
Ar 9.589031 5.653685 9.575223
Ar 9.645077 9.304087 1.776873
Ar 9.335519 9.284413 5.456126
Ar 9.077856 9.332810 9.214404
27
Lattice="1.120951360747687e-09 0 0 0 1.120951360747687e-09 0 0 0 1.120951360747687e-09" Properties=species:S:1:pos:R:3 Step=10
Ar 1.591721 1.761795 1.835938
Ar 1.859410 1.697102 5.557065
Ar 1.991452 2.254343 9.306719
Ar 1.684291 5.398540 1.715498
Ar 1.795005 5.272191 5.413063
Ar 2.167298 6.048624 9.167122
Ar 2.337449 9.181694 1.700559
Ar 1.742956 9.100788 5.788635
Ar 1.371873 9.805156 9.388032
Ar 5.406386 1.569439 1.924308
Ar 5.567750 2.336461 5.739697
Ar 5.718690 1.770427 9.310254
Ar 5.437965 5.400731 1.672614
Ar 5.355159 5.928588 5.500123
Ar 5.935277 5.405055 9.258780
Ar 6.169193 8.928938 1.902311
Ar 5.749574 9.964412 5.448924
Ar 5.209901 9.188262 9.485066
Ar 9.215089 1.803615 1.962873
Ar 9.257978 1.670936 5.730675
Ar 9.459149 1.914935 9.449236
Ar 9.147631 5.559875 1.990853
Ar 9.418911 5.465922 5.820608
Ar 9.639677 5.667449 9.609721
Ar 9.716442 9.311843 1.752535
Ar 9.335125 9.265146 5.412980
Ar 9.016731 9.330414 9.191510
27
Lattice="1.120951360747687e-09 0 0 0 1.120951360747687e-09 0 0 0 1.120951360747687e-09" Properties=species:S:1:pos:R:3 Step=11
Ar 1.567090 1.747404 1.832627
Ar 1.871540 1.643849 5.555423
Ar 2.021841 2.323302 9.298168
Ar 1.648389 5.388989 1.682640
Ar 1.794986 5.217357 5.381506
Ar 2.217413 6.119629 9.138761
Ar 2.398654 9.170924 1.703639
Ar 1.749655 9.051941 5.815042
Ar 1.309400 9.886648 9.412080
Ar 5.385485 1.531487 1.934043
Ar 5.572160 2.416926 5.750686
Ar 5.739803 1.741449 9.309852
Ar 5.393420 5.375763 1.658543
Ar 5.333756 5.983766 5.483265
Ar 5.987559 5.385995 9.237224
Ar 6.243498 8.887315 1.903021
Ar 5.757106 10.029205 5.436725
Ar 5.158079 9.165119 9.484118
Ar 9.185745 1.813306 1.982554
Ar 9.253645 1.634950 5.735642
Ar 9.479139 1.912641 9.459217
Ar 9.111797 5.572903 2.027036
Ar 9.411152 5.459575 5.843168
Ar 9.696958 5.682016 9.648385
Ar 9.793726 9.318834 1.718369
Ar 9.323667 9.228288 5.376050
Ar 8.951263 9.328858 9.157247
27
Lattice="1.120951360747687e-09 0 0 0 1.120951360747687e-09 0 0 0 1.120951360747687e-09" Properties=species:S:1:pos:R:3 Step=12
Ar 1.543752 1.724934 1.826062
Ar 1.885853 1.584410 5.553576
Ar 2.058992 2.392415 9.291910
Ar 1.614222 5.386866 1.647639
Ar 1.788405 5.160107 5.348930
Ar 2.263397 6.188866 9.106253
Ar 2.455928 9.160398 1.717142
Ar 1.762134 9.001200 5.837772
Ar 1.248516 9.970883 9.435333
Ar 5.365680 1.500126 1.940476
Ar 5.578492 2.483119 5.759227
Ar 5.760707 1.703844 9.312853
Ar 5.340804 5.345425 1.641025
Ar 5.320854 6.049262 5.466827
Ar 6.043976 5.368422 9.215255
Ar 6.316826 8.846908 1.901957
Ar 5.756425 10.086647 5.428988
Ar 5.109786 9.144123 9.480161
Ar 9.151075 1.826755 2.006396
Ar 9.254274 1.600573 5.739921
Ar 9.495331 1.911928 9.467322
Ar 9.071258 5.585538 2.065948
Ar 9.396572 5.453325 5.868186
Ar 9.759029 5.696355 9.685874
Ar 9.868889 9.327875 1.676842
Ar 9.316486 9.185466 5.339413
Ar 8.888223 9.325847 9.115784
27
Lattice="1.120951360747687e-09 0 0 0 1.120951360747687e-09 0 0 0 1.120951360747687e-09" Properties=species:S:1:pos:R:3 Step=13
Ar 1.518951 1.700990 1.816616
Ar 1.902879 1.521947 5.552750
Ar 2.098739 2.463405 9.286235
Ar 1.576054 5.388927 1.610373
Ar 1.778726 5.099298 5.315681
Ar 2.303298 6.252651 9.070908
Ar 2.511198 9.148818 1.737550
Ar 1.774851 8.949316 5.860658
Ar 1.194939 10.051059 9.457032
Ar 5.345641 1.473643 1.943292
Ar 5.587433 2.539912 5.765102
Ar 5.781959 1.663772 9.317201
Ar 5.285752 5.313877 1.620113
Ar 5.311150 6.119245 5.450278
Ar 6.103947 5.352138 9.192891
Ar 6.385244 8.811724 1.898984
Ar 5.751324 10.140991 5.426173
Ar 5.064507 9.124558 9.472870
Ar 9.117377 1.841700 2.029123
Ar 9.259902 1.571139 5.747387
Ar 9.512035 1.915659 9.475912
Ar 9.026193 5.598437 2.101471
Ar 9.379760 5.441865 5.898642
Ar 9.824014 5.710858 9.721447
Ar 9.936251 9.340346 1.630287
Ar 9.316266 9.147971 5.297164
Ar 8.831880 9.319903 9.069925
27
Lattice="1.120951360747687e-09 0 0 0 1.120951360747687e-09 0 0 0 1.120951360747687e-09" Properties=species:S:1:pos:R:3 Step=14
Ar 1.491667 1.679656 1.805082
Ar 1.923619 1.458422 5.553357
Ar 2.139430 2.535915 9.279720
Ar 1.530663 5.392599 1.571833
Ar 1.772276 5.036121 5.281032
Ar 2.335474 6.305723 9.033983
Ar 2.565448 9.135375 1.762498
Ar 1.784109 8.896330 5.886200
Ar 1.152674 10.123784 9.477205
Ar 5.324447 1.450699 1.942421
Ar 5.598759 2.601628 5.768429
Ar 5.804361 1.625874 9.319948
Ar 5.230978 5.285870 1.596726
Ar 5.300480 6.186193 5.432696
Ar 6.166372 5.337142 9.169985
Ar 6.445832 8.783736 1.894854
Ar 5.746201 10.195472 5.427457
Ar 5.022524 9.106137 9.463194
Ar 9.087239 1.857054 2.049143
Ar 9.270305 1.545162 5.759405
Ar 9.531107 1.924962 9.486505
Ar 8.977263 5.611981 2.132741
Ar 9.363341 5.423864 5.935466
Ar 9.889976 5.726916 9.756336
Ar 9.994271 9.356114 1.579622
Ar 9.318340 9.120455 5.245422
Ar 8.784025 9.310671 9.020332
27
Lattice="1.120951360747687e-09 0 0 0 1.120951360747687e-09 0 0 0 1.120951360747687e-09" Properties=species:S:1:pos:R:3 Step=15
Ar 1.463172 1.661831 1.792452
Ar 1.949214 1.394751 5.555212
Ar 2.180877 2.606870 9.271562
Ar 1.478014 5.397285 1.534309
Ar 1.769675 4.972693 5.243890
Ar 2.358152 6.341342 8.997469
Ar 2.618068 9.119481 1.791340
Ar 1.787572 8.842867 5.914670
Ar 1.124031 10.188088 9.495481
Ar 5.301797 1.431087 1.937703
Ar 5.613244 2.669538 5.768962
Ar 5.828514 1.592293 9.318627
Ar 5.176966 5.264615 1.571218
Ar 5.288116 6.247195 5.413014
Ar 6.229550 5.324485 9.146952
Ar 6.496932 8.764384 1.890000
Ar 5.743121 10.252014 5.432576
Ar 4.985302 9.089456 9.452284
Ar 9.059698 1.872464 2.067442
Ar 9.285153 1.520076 5.775840
Ar 9.552612 1.939939 9.499759
Ar 8.925437 5.625730 2.162608
Ar 9.348639 5.401091 5.977842
Ar 9.953869 5.746270 9.791633
Ar 10.044193 9.374075 1.524794
Ar 9.319331 9.099426 5.183016
Ar 8.745404 9.298705 8.966381
27
Lattice="1.120951360747687e-09 0 0 0 1.120951360747687e-09 0 0 0 1.120951360747687e-09" Properties=species:S:1:pos:R:3 Step=16
Ar 1.435480 1.646562 1.779777
Ar 1.980633 1.331698 5.557778
Ar 2.223567 2.670925 9.261571
Ar 1.420477 5.403447 1.501302
Ar 1.768035 4.910847 5.203330
Ar 2.371107 6.353835 8.964258
Ar 2.667507 9.100568 1.824373
Ar 1.783465 8.790360 5.944798
Ar 1.110105 10.244162 9.510816
Ar 5.277774 1.415539 1.928716
Ar 5.632490 2.735712 5.766092
Ar 5.854912 1.563496 9.311841
Ar 5.122981 5.251377 1.543023
Ar 5.275680 6.303631 5.390143
Ar 6.291267 5.315784 9.124813
Ar 6.538606 8.755205 1.884210
Ar 5.742071 10.310578 5.441946
Ar 4.954510 9.075362 9.441285
Ar 9.032317 1.887763 2.086247
Ar 9.304610 1.493447 5.795990
Ar 9.575972 1.960354 9.515922
Ar 8.871638 5.638468 2.194904
Ar 9.336268 5.376443 6.024246
Ar 10.010974 5.770705 9.827720
Ar 10.088078 9.392757 1.465294
Ar 9.318263 9.077666 5.110620
Ar 8.716458 9.285180 8.906825
27
Lattice="1.120951360747687e-09 0 0 0 1.120951360747687e-09 0 0 0 1.120951360747687e-09" Properties=species:S:1:pos:R:3 Step=17
Ar 1.409762 1.632542 1.768150
Ar 2.018239 1.270901 5.560272
Ar 2.268082 2.720791 9.250162
Ar 1.361689 5.411313 1.477302
Ar 1.765350 4.852118 5.159381
Ar 2.377802 6.342279 8.937724
Ar 2.711976 9.078168 1.861854
Ar 1.770128 8.740697 5.974790
Ar 1.111208 10.292268 9.521648
Ar 5.252597 1.405180 1.914882
Ar 5.657940 2.795601 5.758864
Ar 5.884215 1.539472 9.299429
Ar 5.068390 5.246175 1.511172
Ar 5.265493 6.357562 5.363168
Ar 6.348454 5.312434 9.104905
Ar 6.572392 8.757862 1.876588
Ar 5.742364 10.368895 5.455937
Ar 4.930867 9.063968 9.431432
Ar 9.003364 1.902448 2.107944
Ar 9.329797 1.463066 5.819097
Ar 9.600708 1.985964 9.535241
Ar 8.816584 5.648483 2.232286
Ar 9.326567 5.352292 6.073158
Ar 10.054917 5.801952 9.864200
Ar 10.127169 9.410693 1.400749
Ar 9.314539 9.049670 5.029811
Ar 8.697577 9.271788 8.840406
27
Lattice="1.120951360747687e-09 0 0 0 1.120951360747687e-09 0 0 0 1.120951360747687e-09" Properties=species:S:1:pos:R:3 Step=18
Ar 1.385754 1.618872 1.758768
Ar 2.061376 1.215325 5.561648
Ar 2.314571 2.748081 9.238379
Ar 1.305378 5.420124 1.466757
Ar 1.762051 4.798329 5.114211
Ar 2.384779 6.312393 8.920609
Ar 2.749761 9.052326 1.903236
Ar 1.746195 8.695633 6.003161
Ar 1.126669 10.332145 9.526368
Ar 5.226546 1.400886 1.896001
Ar 5.690391 2.851355 5.745964
Ar 5.917401 1.520267 9.282153
Ar 5.013933 5.248593 1.475079
Ar 5.259434 6.409350 5.331629
Ar 6.396690 5.314968 9.088692
Ar 6.600417 8.773657 1.865565
Ar 5.743576 10.423624 5.474081
Ar 4.913898 9.054329 9.424096
Ar 8.972936 1.915299 2.134348
Ar 9.362421 1.427306 5.844477
Ar 9.626691 2.016464 9.558049
Ar 8.760882 5.653929 2.275187
Ar 9.320061 5.329937 6.122960
Ar 10.079311 5.841545 9.900048
Ar 10.161393 9.426566 1.331624
Ar 9.307020 9.014003 4.943027
Ar 8.688753 9.260786 8.766648
27
Lattice="1.120951360747687e-09 0 0 0 1.120951360747687e-09 0 0 0 1.120951360747687e-09" Properties=species:S:1:pos:R:3 Step=19
Ar 1.362100 1.605090 1.752854
Ar 2.108199 1.168381 5.560614
Ar 2.362525 2.746647 9.227692
Ar 1.253794 5.428151 1.471629
Ar 1.760238 4.751845 5.072926
Ar 2.397155 6.273851 8.913817
Ar 2.779555 9.024084 1.946915
Ar 1.711414 8.656066 6.029240
Ar 1.153933 10.363083 9.524236
Ar 5.199937 1.402732 1.872790
Ar 5.730156 2.905510 5.726093
Ar 5.955718 1.505610 9.261203
Ar 4.962073 5.257991 1.435127
Ar 5.258139 6.458073 5.295751
Ar 6.430626 5.322570 9.077353
Ar 6.624436 8.802614 1.849181
Ar 5.745793 10.472186 5.494713
Ar 4.902694 9.045179 9.420562
Ar 8.942659 1.924327 2.166333
Ar 9.403767 1.385896 5.871555
Ar 9.654156 2.051362 9.584610
Ar 8.704996 5.653305 2.321613
Ar 9.317659 5.309719 6.171633
Ar 10.081552 5.890455 9.934370
Ar 10.190036 9.439375 1.259602
Ar 9.294701 8.972823 4.853849
Ar 8.688755 9.254818 8.686503
27
Lattice="1.120951360747687e-09 0 0 0 1.120951360747687e-09 0 0 0 1.120951360747687e-09" Properties=species:S:1:pos:R:3 Step=20
Ar 1.337284 1.590893 1.751384
Ar 2.155873 1.131954 5.555832
Ar 2.411191 2.717615 9.219403
Ar 1.206418 5.433361 1.489229
Ar 1.762462 4.714932 5.042715
Ar 2.414315 6.234211 8.916335
Ar 2.800886 8.995527 1.990615
Ar 1.667345 8.621714 6.053146
Ar 1.188027 10.383653 9.516309
Ar 5.173009 1.409879 1.846808
Ar 5.777263 2.955875 5.698565
Ar 6.000490 1.494409 9.237870
Ar 4.915877 5.273268 1.392859
Ar 5.260662 6.502900 5.256561
Ar 6.445998 5.332937 9.070818
Ar 6.645168 8.842836 1.825824
Ar 5.749504 10.514024 5.515346
Ar 4.896715 9.035939 9.421534
Ar 8.914310 1.927146 2.203830
Ar 9.453919 1.340366 5.899973
Ar 9.683673 2.090211 9.614946
Ar 8.649002 5.645865 2.367716
Ar 9.320355 5.291361 6.216997
Ar 10.065568 5.948490 9.967369
Ar 10.212804 9.448712 1.187349
Ar 9.277756 8.930088 4.766670
Ar 8.694785 9.256224 8.602407
27
Lattice="1.120951360747687e-09 0 0 0 1.120951360747687e-09 0 0 0 1.120951360747687e-09" Properties=species:S:1:pos:R:3 Step=21
Ar 1.310423 1.575975 1.754748
Ar 2.201310 1.104857 5.546246
Ar 2.460655 2.670665 9.214089
Ar 1.160495 5.434123 1.513610
Ar 1.771007 4.687731 5.030016
Ar 2.430623 6.195497 8.926035
Ar 2.814322 8.969101 2.032275
Ar 1.616977 8.591369 6.075440
Ar 1.222560 10.393167 9.505462
Ar 5.145674 1.421068 1.819613
Ar 5.831471 2.998684 5.663409
Ar 6.052985 1.484875 9.213478
Ar 4.876848 5.292828 1.350574
Ar 5.265037 6.543591 5.215647
Ar 6.442361 5.342716 9.066682
Ar 6.662355 8.890910 1.795100
Ar 5.755426 10.550125 5.533621
Ar 4.895746 9.026901 9.426668
Ar 8.888354 1.921526 2.246311
Ar 9.512038 1.293496 5.929793
Ar 9.716261 2.133250 9.648946
Ar 8.592267 5.631584 2.409235
Ar 9.328654 5.274309 6.257646
Ar 10.039262 6.014230 10.000114
Ar 10.230320 9.455008 1.117739
Ar 9.257763 8.889456 4.685279
Ar 8.703187 9.265964 8.517413
27
Lattice="1.120951360747687e-09 0 0 0 1.120951360747687e-09 0 0 0 1.120951360747687e-09" Properties=species:S:1:pos:R:3 Step=22
Ar 1.281526 1.560160 1.762662
Ar 2.241936 1.083298 5.531383
Ar 2.512570 2.618731 9.211676
Ar 1.113437 5.429387 1.540062
Ar 1.787613 4.668377 5.037711
Ar 2.439574 6.157190 8.940461
Ar 2.820998 8.946846 2.070543
Ar 1.563707 8.563623 6.096682
Ar 1.251832 10.392210 9.495225
Ar 5.117470 1.435268 1.792055
Ar 5.892137 3.033527 5.620950
Ar 6.114187 1.475246 9.189442
Ar 4.843657 5.314977 1.310788
Ar 5.269317 6.579991 5.174897
Ar 6.424045 5.348298 9.060225
Ar 6.675421 8.942908 1.758478
Ar 5.764357 10.581644 5.547946
Ar 4.899233 9.018631 9.434471
Ar 8.863615 1.905673 2.293250
Ar 9.577030 1.248513 5.961433
Ar 9.753358 2.181710 9.686542
Ar 8.533823 5.610665 2.442798
Ar 9.342338 5.258136 6.293403
Ar 10.008753 6.085467 10.032733
Ar 10.243543 9.459535 1.053727
Ar 9.237054 8.853047 4.611821
Ar 8.710631 9.282880 8.434659
27
Lattice="1.120951360747687e-09 0 0 0 1.120951360747687e-09 0 0 0 1.120951360747687e-09" Properties=species:S:1:pos:R:3 Step=23
Ar 1.251228 1.543675 1.774272
Ar 2.276298 1.062711 5.511545
Ar 2.569810 2.571316 9.211771
Ar 1.064596 5.418662 1.568120
Ar 1.813223 4.654306 5.064125
Ar 2.436746 6.120787 8.957647
Ar 2.821938 8.930120 2.104570
Ar 1.510724 8.537333 6.117076
Ar 1.272690 10.382802 9.488405
Ar 5.087798 1.451932 1.764227
Ar 5.957959 3.063225 5.571658
Ar 6.184475 1.464342 9.167307
Ar 4.812712 5.338399 1.275601
Ar 5.272216 6.611786 5.136445
Ar 6.398308 5.346626 9.045927
Ar 6.684075 8.994997 1.719627
Ar 5.777022 10.609256 5.557472
Ar 4.905728 9.011353 9.442513
Ar 8.838074 1.878271 2.344096
Ar 9.647659 1.208815 5.995356
Ar 9.796560 2.237349 9.727702
Ar 8.473333 5.583139 2.466397
Ar 9.360696 5.242817 6.324801
Ar 9.975597 6.159425 10.063356
Ar 10.252851 9.464318 0.998908
Ar 9.217923 8.821286 4.546923
Ar 8.714777 9.303627 8.357645
27
Lattice="1.120951360747687e-09 0 0 0 1.120951360747687e-09 0 0 0 1.120951360747687e-09" Properties=species:S:1:pos:R:3 Step=24
Ar 1.220235 1.527322 1.788336
Ar 2.304597 1.039371 5.487827
Ar 2.635426 2.531700 9.213672
Ar 1.016011 5.402385 1.600668
Ar 1.847719 4.642332 5.104223
Ar 2.420231 6.090355 8.977167
Ar 2.817729 8.919682 2.133649
Ar 1.460850 8.511909 6.136304
Ar 1.285246 10.369262 9.486254
Ar 5.056220 1.470847 1.735800
Ar 6.026689 3.089631 5.516426
Ar 6.263668 1.451517 9.148685
Ar 4.779863 5.362480 1.245701
Ar 5.273194 6.638875 5.102612
Ar 6.371799 5.336007 9.019738
Ar 6.687132 9.043641 1.684069
Ar 5.793925 10.633464 5.561782
Ar 4.912941 9.004753 9.447830
Ar 8.809919 1.838546 2.397959
Ar 9.722211 1.177845 6.031886
Ar 9.847244 2.301597 9.772274
Ar 8.411911 5.548888 2.479222
Ar 9.382936 5.228745 6.352211
Ar 9.938310 6.232571 10.089465
Ar 10.257716 9.472030 0.957522
Ar 9.202138 8.793156 4.490542
Ar 8.714391 9.323346 8.290330
27
Lattice="1.120951360747687e-09 0 0 0 1.120951360747687e-09 0 0 0 1.120951360747687e-09" Properties=species:S:1:pos:R:3 Step=25
Ar 1.188967 1.512572 1.803495
Ar 2.328791 1.011456 5.461925
Ar 2.711450 2.498754 9.216036
Ar 0.968043 5.382669 1.640858
Ar 1.889760 4.628498 5.151930
Ar 2.389950 6.069634 9.000740
Ar 2.808452 8.915870 2.156982
Ar 1.416633 8.487459 6.153592
Ar 1.291902 10.357800 9.488405
Ar 5.022788 1.491828 1.706404
Ar 6.094746 3.111871 5.457063
Ar 6.351289 1.436304 9.135263
Ar 4.742323 5.387313 1.219665
Ar 5.272338 6.661449 5.075758
Ar 6.347581 5.316757 8.980944
Ar 6.684780 9.085574 1.657795
Ar 5.815266 10.654856 5.560673
Ar 4.918316 8.998144 9.447508
Ar 8.778371 1.786552 2.453162
Ar 9.797961 1.158587 6.071279
Ar 9.906020 2.374613 9.819664
Ar 8.352671 5.508045 2.481183
Ar 9.408404 5.216525 6.375278
Ar 9.895337 6.300387 10.108685
Ar 10.257129 9.485500 0.933183
Ar 9.190720 8.766590 4.444880
Ar 8.709429 9.336940 8.236449
27
Lattice="1.120951360747687e-09 0 0 0 1.120951360747687e-09 0 0 0 1.120951360747687e-09" Properties=species:S:1:pos:R:3 Step=26
Ar 1.157728 1.501614 1.818686
Ar 2.351895 0.978823 5.435762
Ar 2.797723 2.470798 9.216485
Ar 0.919624 5.363806 1.689987
Ar 1.936823 4.608728 5.202000
Ar 2.347183 6.059121 9.031634
Ar 2.794294 8.918601 2.173741
Ar 1.380533 8.464698 6.168100
Ar 1.295135 10.354512 9.493388
Ar 4.988338 1.514407 1.675971
Ar 6.157160 3.128749 5.396725
Ar 6.446641 1.418175 9.128827
Ar 4.699752 5.413419 1.194651
Ar 5.270223 6.679835 5.057824
Ar 6.324503 5.291223 8.932611
Ar 6.676680 9.117784 1.644726
Ar 5.840875 10.673860 5.554207
Ar 4.919800 8.990782 9.439559
Ar 8.744072 1.723662 2.507039
Ar 9.870867 1.152499 6.113895
Ar 9.972180 2.454512 9.868419
Ar 8.299271 5.461591 2.472634
Ar 9.436404 5.206624 6.392909
Ar 9.846768 6.358076 10.122337
Ar 10.250631 9.506398 0.926527
Ar 9.183665 8.738991 4.412833
Ar 8.701213 9.340831 8.198202
27
Lattice="1.120951360747687e-09 0 0 0 1.120951360747687e-09 0 0 0 1.120951360747687e-09" Properties=species:S:1:pos:R:3 Step=27
Ar 1.127227 1.497227 1.833631
Ar 2.376414 0.941841 5.410953
Ar 2.891381 2.447944 9.211467
Ar 0.870388 5.351584 1.747792
Ar 1.985591 4.580438 5.251019
Ar 2.294212 6.055747 9.072715
Ar 2.775937 8.927226 2.183416
Ar 1.354880 8.444528 6.179521
Ar 1.295668 10.363150 9.499320
Ar 4.954550 1.537713 1.644955
Ar 6.208463 3.140407 5.339983
Ar 6.548429 1.396680 9.131081
Ar 4.654220 5.441196 1.168462
Ar 5.267676 6.694600 5.049572
Ar 6.299260 5.262824 8.880284
Ar 6.660867 9.137774 1.644316
Ar 5.870338 10.690462 5.542986
Ar 4.916380 8.982238 9.423659
Ar 8.708931 1.652973 2.556418
Ar 9.936100 1.158394 6.160024
Ar 10.043590 2.537245 9.916001
Ar 8.253947 5.411558 2.454640
Ar 9.465825 5.199052 6.403950
Ar 9.793825 6.402402 10.136917
Ar 10.238922 9.533696 0.933308
Ar 9.179887 8.708853 4.394591
Ar 8.692414 9.334293 8.174869
27
Lattice="1.120951360747687e-09 0 0 0 1.120951360747687e-09 0 0 0 1.120951360747687e-09" Properties=species:S:1:pos:R:3 Step=28
Ar 1.098732 1.502258 1.849210
Ar 2.402723 0.901396 5.388184
Ar 2.988502 2.431427 9.196653
Ar 0.822056 5.351552 1.814290
Ar 2.032996 4.543771 5.298003
Ar 2.233356 6.055211 9.124442
Ar 2.754390 8.940600 2.186246
Ar 1.341310 8.427286 6.188560
Ar 1.292612 10.384344 9.504359
Ar 4.923450 1.560753 1.614187
Ar 6.244578 3.149454 5.291764
Ar 6.654529 1.371715 9.143329
Ar 4.609065 5.470408 1.141233
Ar 5.265386 6.706500 5.049968
Ar 6.269505 5.234431 8.829561
Ar 6.635547 9.144106 1.651493
Ar 5.903409 10.704351 5.528312
Ar 4.908034 8.972603 9.400984
Ar 8.675242 1.578899 2.598383
Ar 9.989964 1.172373 6.209351
Ar 10.117755 2.617936 9.959307
Ar 8.215145 5.360093 2.429468
Ar 9.495094 5.193312 6.408229
Ar 9.736968 6.433016 10.158356
Ar 10.223077 9.563577 0.945235
Ar 9.177826 8.675762 4.388414
Ar 8.686348 9.319107 8.163033
27
Lattice="1.120951360747687e-09 0 0 0 1.120951360747687e-09 0 0 0 1.120951360747687e-09" Properties=species:S:1:pos:R:3 Step=29
Ar 1.074146 1.518923 1.867146
Ar 2.428690 0.858571 5.367148
Ar 3.084666 2.421785 9.167820
Ar 0.777312 5.367656 1.890534
Ar 2.076864 4.501582 5.343957
Ar 2.166379 6.054667 9.184177
Ar 2.730608 8.957494 2.183164
Ar 1.340400 8.412424 6.196767
Ar 1.285221 10.416624 9.506938
Ar 4.896941 1.582607 1.584745
Ar 6.264065 3.160294 5.256138
Ar 6.761973 1.343849 9.166395
Ar 4.568333 5.499741 1.115502
Ar 5.263542 6.716668 5.056436
Ar 6.235860 5.207515 8.784756
Ar 6.601672 9.136705 1.659397
Ar 5.940150 10.715431 5.512051
Ar 4.895166 8.962477 9.373299
Ar 8.644952 1.506762 2.631194
Ar 10.031113 1.189072 6.259966
Ar 10.192820 2.692178 9.995209
Ar 8.178482 5.308410 2.400733
Ar 9.522347 5.188616 6.406939
Ar 9.675125 6.451453 10.189144
Ar 10.202739 9.590976 0.953600
Ar 9.176518 8.638535 4.389662
Ar 8.685782 9.297818 8.158032
27
Lattice="1.120951360747687e-09 0 0 0 1.120951360747687e-09 0 0 0 1.120951360747687e-09" Properties=species:S:1:pos:R:3 Step=30
Ar 1.055414 1.548114 1.889174
Ar 2.451416 0.814582 5.346844
Ar 3.174731 2.417772 9.122170
Ar 0.738502 5.401639 1.977974
Ar 2.116009 4.458160 5.390856
Ar 2.094694 6.053524 9.247493
Ar 2.705137 8.977064 2.175431
Ar 1.351308 8.398657 6.205922
Ar 1.274300 10.457776 9.506190
Ar 4.876439 1.602476 1.557705
Ar 6.268304 3.172746 5.235312
Ar 6.865979 1.314287 9.200649
Ar 4.534539 5.526952 1.094743
Ar 5.261772 6.726768 5.065637
Ar 6.201702 5.182517 8.748942
Ar 6.563504 9.117173 1.662325
Ar 5.980719 10.724422 5.496223
Ar 4.878217 8.952742 9.342174
Ar 8.619887 1.442116 2.656997
Ar 10.060429 1.203165 6.308032
Ar 10.266847 2.756932 10.020830
Ar 8.139116 5.256086 2.373034
Ar 9.545830 5.184081 6.402333
Ar 9.606258 6.459282 10.227879
Ar 10.178650 9.611984 0.952353
Ar 9.176680 8.597850 4.391693
Ar 8.692647 9.272152 8.153111
27
Lattice="1.120951360747687e-09 0 0 0 1.120951360747687e-09 0 0 0 1.120951360747687e-09" Properties=species:S:1:pos:R:3 Step=31
Ar 1.041540 1.589196 1.915817
Ar 2.469662 0.770917 5.326003
Ar 3.255511 2.416519 9.060203
Ar 0.705920 5.452657 2.076761
Ar 2.149807 4.417824 5.440397
Ar 2.020399 6.052666 9.310122
Ar 2.678320 8.999052 2.164301
Ar 1.371485 8.384449 6.217367
Ar 1.264234 10.505252 9.502258
Ar 4.862720 1.619548 1.533882
Ar 6.260538 3.183219 5.229520
Ar 6.960151 1.284412 9.245871
Ar 4.506350 5.549469 1.081646
Ar 5.259608 6.738365 5.074205
Ar 6.171605 5.159996 8.724422
Ar 6.527066 9.089049 1.657174
Ar 6.024712 10.732491 5.482655
Ar 4.857835 8.944327 9.308937
Ar 8.600873 1.389887 2.678778
Ar 10.080030 1.210560 6.348468
Ar 10.339501 2.810537 10.034642