10
Step 0 (LJ reduced units, box L=5.0)
Ar 2.083714 3.597721 0.001858
Ar 1.514062 0.728751 0.468491
Ar 0.935297 1.730787 1.989413
Ar 2.689148 2.095844 3.423454
Ar 1.020429 4.393696 0.134549
Ar 3.350848 2.083545 2.789334
Ar 0.811994 1.022703 3.912188
Ar 4.841960 1.575895 3.466393
Ar 4.380472 4.469068 0.422557
Ar 0.089294 0.818093 4.475619
10
Step 10 (LJ reduced units, box L=5.0)
Ar 2.067646 3.560385 0.014974
Ar 1.537958 0.678639 0.536735
Ar 0.975627 1.760207 2.045625
Ar 2.579989 2.095530 3.453392
Ar 1.004263 4.423132 0.110414
Ar 3.395707 2.052044 2.692017
Ar 1.926219 1.349132 2.985979
Ar 4.847761 1.663851 3.513898
Ar 4.365688 4.429392 0.395911
Ar -0.983639 0.503790 5.334913
10
Step 20 (LJ reduced units, box L=5.0)
Ar 2.048115 3.525964 0.028427
Ar 1.561711 0.628858 0.605457
Ar 1.018277 1.788524 2.103483
Ar 2.457539 2.099170 3.501357
Ar 0.991652 4.449688 0.085956
Ar 3.487615 2.040629 2.599954
Ar 3.005633 1.651939 2.035077
Ar 4.852315 1.752127 3.560786
Ar 4.350810 4.389681 0.369249
Ar -2.056449 0.189523 6.194110
10
Step 30 (LJ reduced units, box L=5.0)
Ar 2.025577 3.494288 0.042065
Ar 1.585432 0.579446 0.674665
Ar 1.062170 1.816474 2.161453
Ar 2.339228 2.103315 3.546194
Ar 0.982145 4.473535 0.061327
Ar 3.809596 2.200247 2.716948
Ar 3.851103 1.782875 0.878632
Ar 4.855390 1.840733 3.606692
Ar 4.335838 4.349935 0.342573
Ar -3.129259 -0.124745 7.053307
10
Step 40 (LJ reduced units, box L=5.0)
Ar 2.000398 3.465211 0.055768
Ar 1.609079 0.530337 0.744225
Ar 1.106632 1.844244 2.219552
Ar 2.221881 2.107405 3.589681
Ar 0.975373 4.494818 0.036646
Ar 4.135556 2.360895 2.840807
Ar 4.694008 1.911668 -0.281298
Ar 4.855590 1.930401 3.650087
Ar 4.320770 4.310137 0.315883
Ar -4.202069 -0.439013 7.912504
10
Step 50 (LJ reduced units, box L=5.0)
Ar 1.972872 3.438620 0.069438
Ar 1.632627 0.481485 0.814073
Ar 1.151803 1.871901 2.278121
Ar 2.104305 2.111397 3.632247
Ar 0.971044 4.513649 0.012010
Ar 4.460090 2.523353 2.962307
Ar 5.536909 2.040510 -1.441200
Ar 4.856837 2.018211 3.695983
Ar 4.305611 4.270259 0.289176
Ar -5.274879 -0.753281 8.771701
10
Step 60 (LJ reduced units, box L=5.0)
Ar 1.943232 3.414432 0.082991
Ar 1.656093 0.432869 0.884171
Ar 1.197907 1.899537 2.337667
Ar 1.985957 2.115186 3.673562
Ar 0.968924 4.530112 -0.012501
Ar 4.756692 2.728054 3.025031
Ar 6.379810 2.169352 -2.601102
Ar 4.885937 2.063763 3.800681
Ar 4.290356 4.230347 0.262460
Ar -6.347689 -1.067549 9.630899
10
Step 70 (LJ reduced units, box L=5.0)
Ar 1.911666 3.392588 0.096353
Ar 1.679492 0.384468 0.954481
Ar 1.245207 1.927269 2.398942
Ar 1.866480 2.118663 3.712934
Ar 0.968824 4.544263 -0.036815
Ar 5.042759 2.960556 3.052822
Ar 7.222711 2.298194 -3.761005
Ar 4.925572 2.081515 3.940310
Ar 4.275008 4.190403 0.235737
Ar -7.420499 -1.381816 10.490096
10
Step 80 (LJ reduced units, box L=5.0)
Ar 1.878298 3.373048 0.109457
Ar 1.702837 0.336260 1.024973
Ar 1.293944 1.955239 2.463012
Ar 1.745621 2.121711 3.749330
Ar 0.970593 4.556132 -0.060866
Ar 5.328311 3.190440 3.083178
Ar 8.065612 2.427036 -4.920907
Ar 4.965721 2.101885 4.077376
Ar 4.259592 4.150436 0.209010
Ar -8.493310 -1.696084 11.349293
10
Step 90 (LJ reduced units, box L=5.0)
Ar 1.843186 3.355786 0.122233
Ar 1.726138 0.288224 1.095618
Ar 1.344197 1.983587 2.531208
Ar 1.623290 2.124208 3.781448
Ar 0.974108 4.565725 -0.084588
Ar 5.613242 3.418262 3.115447
Ar 8.908512 2.555878 -6.080809
Ar 5.006492 2.124316 4.212528
Ar 4.244174 4.110468 0.182283
Ar -9.566120 -2.010352 12.208490
10
Step 100 (LJ reduced units, box L=5.0)
Ar 1.806425 3.340820 0.134617
Ar 1.749405 0.240338 1.166390
Ar 1.395681 2.012397 2.604745
Ar 1.499761 2.126094 3.808097
Ar 0.979273 4.573022 -0.107919
Ar 5.897849 3.645359 3.148340
Ar 9.751413 2.684720 -7.240712
Ar 5.047586 2.147474 4.347056
Ar 4.228756 4.070499 0.155555
Ar -10.638930 -2.324620 13.067687
10
Step 110 (LJ reduced units, box L=5.0)
Ar 1.768093 3.328195 0.146540
Ar 1.772646 0.192581 1.237267
Ar 1.447687 2.041599 2.683674
Ar 1.375737 2.127458 3.829249
Ar 0.986009 4.577978 -0.130789
Ar 6.182315 3.872200 3.181440
Ar 10.594314 2.813562 -8.400614
Ar 5.088821 2.170887 4.481378
Ar 4.213337 4.030531 0.128828
Ar -11.711740 -2.638888 13.926884
10
Step 120 (LJ reduced units, box L=5.0)
Ar 1.728251 3.317982 0.157927
Ar 1.795867 0.144935 1.308231
Ar 1.499631 2.070921 2.765424
Ar 1.251794 2.128590 3.847493
Ar 0.994255 4.580522 -0.153123
Ar 6.466728 4.098955 3.214605
Ar 11.437215 2.942404 -9.560517
Ar 5.130109 2.194385 4.615634
Ar 4.197919 3.990563 0.102100
Ar -12.784550 -2.953155 14.786081
10
Step 130 (LJ reduced units, box L=5.0)
Ar 1.686947 3.310285 0.168695
Ar 1.819075 0.097383 1.379266
Ar 1.551994 2.100094 2.845786
Ar 1.127446 2.129779 3.867054
Ar 1.003962 4.580550 -0.174837
Ar 6.751138 4.325706 3.247775
Ar 12.280115 3.071246 -10.720419
Ar 5.171401 2.217888 4.749886
Ar 4.182501 3.950595 0.075373
Ar -13.857360 -3.267423 15.645278
10
Step 140 (LJ reduced units, box L=5.0)
Ar 1.644218 3.305241 0.178744
Ar 1.842275 0.049876 1.450334
Ar 1.605136 2.129153 2.924092
Ar 1.002326 2.131036 3.888638
Ar 1.015094 4.577925 -0.195832
Ar 7.035547 4.552457 3.280944
Ar 13.123016 3.200088 -11.880321
Ar 5.212692 2.241391 4.884139
Ar 4.167082 3.910627 0.048645
Ar -14.930170 -3.581691 16.504475
10
Step 150 (LJ reduced units, box L=5.0)
Ar 1.600090 3.303031 0.187958
Ar 1.865476 0.002369 1.521402
Ar 1.657255 2.158197 3.003810
Ar 0.878229 2.132308 3.908810
Ar 1.027627 4.572465 -0.215993
Ar 7.319957 4.779208 3.314113
Ar 13.965917 3.328931 -13.040224
Ar 5.253984 2.264894 5.018391
Ar 4.151664 3.870659 0.021918
Ar -16.002980 -3.895959 17.363672
10
Step 160 (LJ reduced units, box L=5.0)
Ar 1.554581 3.303886 0.196196
Ar 1.888677 -0.045138 1.592471
Ar 1.706007 2.187124 3.087378
Ar 0.757498 2.133697 3.925131
Ar 1.041539 4.563941 -0.235178
Ar 7.604367 5.005959 3.347282
Ar 14.808818 3.457773 -14.200126
Ar 5.295275 2.288397 5.152643
Ar 4.136246 3.830691 -0.004809
Ar -17.075790 -4.210227 18.222869
10
Step 170 (LJ reduced units, box L=5.0)
Ar 1.507708 3.308099 0.203282
Ar 1.911878 -0.092645 1.663539
Ar 1.750437 2.215809 3.174785
Ar 0.641090 2.135328 3.937614
Ar 1.056816 4.552059 -0.253211
Ar 7.888777 5.232710 3.380451
Ar 15.651718 3.586615 -15.360028
Ar 5.336567 2.311900 5.286895
Ar 4.120828 3.790722 -0.031537
Ar -18.148600 -4.524495 19.082066
10
Step 180 (LJ reduced units, box L=5.0)
Ar 1.459488 3.316038 0.209000
Ar 1.935079 -0.140151 1.734608
Ar 1.790847 2.244205 3.264991
Ar 0.528702 2.137248 3.947298
Ar 1.073440 4.536451 -0.269876
Ar 8.173187 5.459461 3.413620
Ar 16.494619 3.715457 -16.519931
Ar 5.377858 2.335403 5.421148
Ar 4.105409 3.750754 -0.058264
Ar -19.221410 -4.838762 19.941263
10
Step 190 (LJ reduced units, box L=5.0)
Ar 1.409951 3.328153 0.213076
Ar 1.958279 -0.187658 1.805676
Ar 1.828062 2.272333 3.356951
Ar 0.419509 2.139436 3.955228
Ar 1.091380 4.516667 -0.284899
Ar 8.457596 5.686211 3.446789
Ar 17.337520 3.844299 -17.679833
Ar 5.419150 2.358906 5.555400
Ar 4.089991 3.710786 -0.084992
Ar -20.294220 -5.153030 20.800460
10
Step 200 (LJ reduced units, box L=5.0)
Ar 1.359162 3.344960 0.215183
Ar 1.981480 -0.235165 1.876745
Ar 1.862953 2.300243 3.449916
Ar 0.312640 2.141842 3.962152
Ar 1.110573 4.492190 -0.297953
Ar 8.742006 5.912962 3.479958
Ar 18.180421 3.973141 -18.839736
Ar 5.460441 2.382409 5.689652
Ar 4.074573 3.670818 -0.111719
Ar -21.367030 -5.467298 21.659657
10
Step 210 (LJ reduced units, box L=5.0)
Ar 1.307259 3.366933 0.214977
Ar 2.004681 -0.282672 1.947813
Ar 1.896235 2.327990 3.543425
Ar 0.207380 2.144411 3.968533
Ar 1.130879 4.462548 -0.308693
Ar 9.026416 6.139713 3.513127
Ar 19.023321 4.101983 -19.999638
Ar 5.501733 2.405912 5.823904
Ar 4.059154 3.630850 -0.138447
Ar -22.439840 -5.781566 22.518854
10
Step 220 (LJ reduced units, box L=5.0)
Ar 1.254522 3.394072 0.212304
Ar 2.027882 -0.330179 2.018882
Ar 1.928437 2.355620 3.637211
Ar 0.103200 2.147098 3.974637
Ar 1.152020 4.427741 -0.316967
Ar 9.310826 6.366464 3.546296
Ar 19.866222 4.230825 -21.159540
Ar 5.543025 2.429415 5.958157
Ar 4.043736 3.590882 -0.165174
Ar -23.512650 -6.095834 23.378051
10
Step 230 (LJ reduced units, box L=5.0)
Ar 1.201421 3.424488 0.207973
Ar 2.051083 -0.377686 2.089950
Ar 1.959925 2.383168 3.731133
Ar -0.000266 2.149865 3.980605
Ar 1.173525 4.389655 -0.323583
Ar 9.595236 6.593215 3.579465
Ar 20.709123 4.359667 -22.319443
Ar 5.584316 2.452918 6.092409
Ar 4.028318 3.550914 -0.191901
Ar -24.585460 -6.410101 24.237248
10
Step 240 (LJ reduced units, box L=5.0)
Ar 1.148291 3.451159 0.205781
Ar 2.074284 -0.425193 2.161018
Ar 1.990942 2.410661 3.825116
Ar -0.103262 2.152689 3.986511
Ar 1.195058 4.355315 -0.332337
Ar 9.879645 6.819966 3.612634
Ar 21.552024 4.488509 -23.479345
Ar 5.625608 2.476421 6.226661
Ar 4.012899 3.510945 -0.218629
Ar -25.658271 -6.724369 25.096445
10
Step 250 (LJ reduced units, box L=5.0)
Ar 1.094194 3.462174 0.212993
Ar 2.097484 -0.472700 2.232087
Ar 2.021650 2.438115 3.919125
Ar -0.205948 2.155550 3.992391
Ar 1.217559 4.336630 -0.350496
Ar 10.164055 7.046717 3.645804
Ar 22.394924 4.617351 -24.639247
Ar 5.666899 2.499924 6.360913
Ar 3.997481 3.470977 -0.245356
Ar -26.731081 -7.038637 25.955642
10
Step 260 (LJ reduced units, box L=5.0)
Ar 1.037797 3.456047 0.231186
Ar 2.120685 -0.520206 2.303155
Ar 2.052152 2.465544 4.013141
Ar -0.308429 2.158438 3.998265
Ar 1.242360 4.335088 -0.379635
Ar 10.448465 7.273468 3.678973
Ar 23.237825 4.746193 -25.799150
Ar 5.708191 2.523427 6.495166
Ar 3.982063 3.431009 -0.272084
Ar -27.803891 -7.352905 26.814839
10
Step 270 (LJ reduced units, box L=5.0)
Ar 0.980234 3.444161 0.253285
Ar 2.143886 -0.567713 2.374224
Ar 2.082518 2.492955 4.107157
Ar -0.410772 2.161343 4.004139
Ar 1.268327 4.339306 -0.412682
Ar 10.732875 7.500219 3.712142
Ar 24.080726 4.875036 -26.959052
Ar 5.749482 2.546930 6.629418
Ar 3.966645 3.391041 -0.298811
Ar -28.876701 -7.667173 27.674037
10
Step 280 (LJ reduced units, box L=5.0)
Ar 0.923387 3.434311 0.273836
Ar 2.167087 -0.615220 2.445292
Ar 2.112844 2.520360 4.201172
Ar -0.513076 2.164253 4.010014
Ar 1.293578 4.341486 -0.444179
Ar 11.017285 7.726970 3.745311
Ar 24.923627 5.003878 -28.118955
Ar 5.790774 2.570433 6.763670
Ar 3.951226 3.351073 -0.325539
Ar -29.949511 -7.981440 28.533234
10
Step 290 (LJ reduced units, box L=5.0)
Ar 0.868256 3.428648 0.291068
Ar 2.190288 -0.662727 2.516361
Ar 2.143170 2.547766 4.295186
Ar -0.615381 2.167164 4.015889
Ar 1.317112 4.339480 -0.472358
Ar 11.301694 7.953720 3.778480
Ar 25.766527 5.132720 -29.278857
Ar 5.832065 2.593936 6.897923
Ar 3.935808 3.311105 -0.352266
Ar -31.022321 -8.295708 29.392431
10
Step 300 (LJ reduced units, box L=5.0)
Ar 0.815185 3.427177 0.304790
Ar 2.213488 -0.710234 2.587429
Ar 2.173496 2.575172 4.389201
Ar -0.717685 2.170074 4.021764
Ar 1.338586 4.333282 -0.497026
Ar 11.586104 8.180471 3.811649
Ar 26.609428 5.261562 -30.438759
Ar 5.873357 2.617439 7.032175
Ar 3.920390 3.271137 -0.378993
Ar -32.095131 -8.609976 30.251628
10
Step 310 (LJ reduced units, box L=5.0)
Ar 0.764239 3.429395 0.315252
Ar 2.236689 -0.757741 2.658497
Ar 2.203822 2.602577 4.483216
Ar -0.819989 2.172984 4.027639
Ar 1.357937 4.323394 -0.518434
Ar 11.870514 8.407222 3.844818
Ar 27.452329 5.390404 -31.598662
Ar 5.914648 2.640942 7.166427
Ar 3.904971 3.231168 -0.405721
Ar -33.167941 -8.924244 31.110825
10
Step 320 (LJ reduced units, box L=5.0)
Ar 0.715380 3.434768 0.322775
Ar 2.259890 -0.805248 2.729566
Ar 2.234148 2.629983 4.577230
Ar -0.922293 2.175895 4.033514
Ar 1.375199 4.310352 -0.536904
Ar 12.154924 8.633973 3.877987
Ar 28.295230 5.519246 -32.758564
Ar 5.955940 2.664445 7.300679
Ar 3.889553 3.191200 -0.432448
Ar -34.240751 -9.238512 31.970022
10
Step 330 (LJ reduced units, box L=5.0)
Ar 0.668549 3.442837 0.327654
Ar 2.283091 -0.852754 2.800634
Ar 2.264474 2.657388 4.671245
Ar -1.024598 2.178805 4.039389
Ar 1.390434 4.294614 -0.552730
Ar 12.439334 8.860724 3.911156
Ar 29.138131 5.648088 -33.918467
Ar 5.997231 2.687948 7.434932
Ar 3.874135 3.151232 -0.459176
Ar -35.313561 -9.552779 32.829219
10
Step 340 (LJ reduced units, box L=5.0)
Ar 0.623683 3.453231 0.330132
Ar 2.306292 -0.900261 2.871703
Ar 2.294800 2.684794 4.765260
Ar -1.126902 2.181716 4.045264
Ar 1.403703 4.276551 -0.566155
Ar 12.723743 9.087475 3.944325
Ar 29.981031 5.776930 -35.078369
Ar 6.038523 2.711451 7.569184
Ar 3.858717 3.111264 -0.485903
Ar -36.386371 -9.867047 33.688416
10
Step 350 (LJ reduced units, box L=5.0)
Ar 0.580735 3.465652 0.330405
Ar 2.329492 -0.947768 2.942771
Ar 2.325126 2.712200 4.859274
Ar -1.229206 2.184626 4.051139
Ar 1.415055 4.256461 -0.577374
Ar 13.008153 9.314226 3.977494
Ar 30.823932 5.905772 -36.238271
Ar 6.079814 2.734954 7.703436
Ar 3.843298 3.071296 -0.512631
Ar -37.459181 -10.181315 34.547613
10
Step 360 (LJ reduced units, box L=5.0)
Ar 0.539673 3.479863 0.328625
Ar 2.352693 -0.995275 3.013840
Ar 2.355452 2.739605 4.953289
Ar -1.331510 2.187537 4.057014
Ar 1.424521 4.234580 -0.586541
Ar 13.292563 9.540977 4.010663
Ar 31.666833 6.034614 -37.398174
Ar 6.121106 2.758457 7.837688
Ar 3.827880 3.031328 -0.539358
Ar -38.531991 -10.495583 35.406810
10
Step 370 (LJ reduced units, box L=5.0)
Ar 0.500480 3.495671 0.324910
Ar 2.375894 -1.042782 3.084908
Ar 2.385778 2.767011 5.047304
Ar -1.433815 2.190447 4.062889
Ar 1.432117 4.211104 -0.593773
Ar 13.576973 9.767728 4.043833
Ar 32.509734 6.163456 -38.558076
Ar 6.162397 2.781960 7.971941
Ar 3.812462 2.991360 -0.566085
Ar -39.604801 -10.809851 36.266007
10
Step 380 (LJ reduced units, box L=5.0)
Ar 0.463159 3.512916 0.319349
Ar 2.399095 -1.090289 3.155976
Ar 2.416104 2.794416 5.141319
Ar -1.536119 2.193357 4.068764
Ar 1.437842 4.186189 -0.599158
Ar 13.861383 9.994479 4.077002
Ar 33.352634 6.292298 -39.717978
Ar 6.203689 2.805463 8.106193
Ar 3.797043 2.951391 -0.592813
Ar -40.677611 -11.124118 37.125204
10
Step 390 (LJ reduced units, box L=5.0)
Ar 0.427729 3.531469 0.312005
Ar 2.422296 -1.137796 3.227045
Ar 2.446430 2.821822 5.235333
Ar -1.638423 2.196268 4.074639
Ar 1.441675 4.159967 -0.602761
Ar 14.145792 10.221229 4.110171
Ar 34.195535 6.421140 -40.877881
Ar 6.244980 2.828966 8.240445
Ar 3.781625 2.911423 -0.619540
Ar -41.750421 -11.438386 37.984401
10
Step 400 (LJ reduced units, box L=5.0)
Ar 0.394230 3.551218 0.302920
Ar 2.445496 -1.185302 3.298113
Ar 2.476756 2.849228 5.329348
Ar -1.740728 2.199178 4.080514
Ar 1.443579 4.132549 -0.604623
Ar 14.430202 10.447980 4.143340
Ar 35.038436 6.549983 -42.037783
Ar 6.286272 2.852469 8.374698
Ar 3.766207 2.871455 -0.646268
Ar -42.823231 -11.752654 38.843598
10
Step 410 (LJ reduced units, box L=5.0)
Ar 0.362719 3.572069 0.292115
Ar 2.468697 -1.232809 3.369182
Ar 2.507082 2.876633 5.423363
Ar -1.843032 2.202089 4.086389
Ar 1.443493 4.104028 -0.604765
Ar 14.714612 10.674731 4.176509
Ar 35.881337 6.678825 -43.197686
Ar 6.327563 2.875972 8.508950
Ar 3.750789 2.831487 -0.672995
Ar -43.896042 -12.066922 39.702795
10
Step 420 (LJ reduced units, box L=5.0)
Ar 0.333280 3.593940 0.279591
Ar 2.491898 -1.280316 3.440250
Ar 2.537408 2.904039 5.517377
Ar -1.945336 2.204999 4.092264
Ar 1.441336 4.074489 -0.603187
Ar 14.999022 10.901482 4.209678
Ar 36.724237 6.807667 -44.357588
Ar 6.368855 2.899475 8.643202
Ar 3.735370 2.791519 -0.699723
Ar -44.968852 -12.381190 40.561992
10
Step 430 (LJ reduced units, box L=5.0)
Ar 0.306020 3.616755 0.265331
Ar 2.515099 -1.327823 3.511319
Ar 2.567735 2.931445 5.611392
Ar -2.047640 2.207909 4.098138
Ar 1.436999 4.044005 -0.599874
Ar 15.283432 11.128233 4.242847
Ar 37.567138 6.936509 -45.517490
Ar 6.410146 2.922978 8.777454
Ar 3.719952 2.751551 -0.726450
Ar -46.041662 -12.695458 41.421189
10
Step 440 (LJ reduced units, box L=5.0)
Ar 0.281080 3.640445 0.249296
Ar 2.538300 -1.375330 3.582387
Ar 2.598061 2.958850 5.705407
Ar -2.149945 2.210820 4.104013
Ar 1.430343 4.012646 -0.594786
Ar 15.567841 11.354984 4.276016
Ar 38.410039 7.065351 -46.677393
Ar 6.451438 2.946481 8.911707
Ar 3.704534 2.711582 -0.753177
Ar -47.114472 -13.009725 42.280386
10
Step 450 (LJ reduced units, box L=5.0)
Ar 0.258639 3.664943 0.231428
Ar 2.561500 -1.422837 3.653456
Ar 2.628387 2.986256 5.799421
Ar -2.252249 2.213730 4.109888
Ar 1.421188 3.980478 -0.587865
Ar 15.852251 11.581735 4.309185
Ar 39.252940 7.194193 -47.837295
Ar 6.492729 2.969984 9.045959
Ar 3.689115 2.671614 -0.779905
Ar -48.187282 -13.323993 43.139583
10
Step 460 (LJ reduced units, box L=5.0)
Ar 0.238921 3.690178 0.211642
Ar 2.584701 -1.470344 3.724524
Ar 2.658713 3.013661 5.893436
Ar -2.354553 2.216641 4.115763
Ar 1.409310 3.947574 -0.579025
Ar 16.136661 11.808486 4.342354
Ar 40.095840 7.323035 -48.997197
Ar 6.534021 2.993487 9.180211
Ar 3.673697 2.631646 -0.806632
Ar -49.260092 -13.638261 43.998780
10
Step 470 (LJ reduced units, box L=5.0)
Ar 0.222211 3.716072 0.189825
Ar 2.607902 -1.517851 3.795592
Ar 2.689039 3.041067 5.987451
Ar -2.456857 2.219551 4.121638
Ar 1.394423 3.914011 -0.568155
Ar 16.421071 12.035237 4.375523
Ar 40.938741 7.451877 -50.157100
Ar 6.575312 3.016990 9.314463
Ar 3.658279 2.591678 -0.833360
Ar -50.332902 -13.952529 44.857977
10
Step 480 (LJ reduced units, box L=5.0)
Ar 0.208865 3.742531 0.165834
Ar 2.631103 -1.565357 3.866661
Ar 2.719365 3.068473 6.081466
Ar -2.559162 2.222462 4.127513
Ar 1.376172 3.879883 -0.555110
Ar 16.705481 12.261988 4.408692
Ar 41.781642 7.580719 -51.317002
Ar 6.616604 3.040493 9.448716
Ar 3.642860 2.551710 -0.860087
Ar -51.405712 -14.266797 45.717175
10
Step 490 (LJ reduced units, box L=5.0)
Ar 0.199328 3.769433 0.139493
Ar 2.654304 -1.612864 3.937729
Ar 2.749691 3.095878 6.175480
Ar -2.661466 2.225372 4.133388
Ar 1.354113 3.845311 -0.539717
Ar 16.989890 12.488738 4.441862
Ar 42.624543 7.709561 -52.476905
Ar 6.657895 3.063996 9.582968
Ar 3.627442 2.511742 -0.886815
Ar -52.478522 -14.581064 46.576372
10
Step 500 (LJ reduced units, box L=5.0)
Ar 0.194129 3.796615 0.110605
Ar 2.677504 -1.660371 4.008798
Ar 2.780017 3.123284 6.269495
Ar -2.763770 2.228282 4.139263
Ar 1.327716 3.810460 -0.521775
Ar 17.274300 12.715489 4.475031
Ar 43.467443 7.838403 -53.636807
Ar 6.699187 3.087499 9.717220
Ar 3.612024 2.471774 -0.913542
Ar -53.551332 -14.895332 47.435569
10
Step 510 (LJ reduced units, box L=5.0)
Ar 0.193825 3.823851 0.078988
Ar 2.700705 -1.707878 4.079866
Ar 2.810343 3.150690 6.363510
Ar -2.866074 2.231193 4.145138
Ar 1.296424 3.775555 -0.501105
Ar 17.558710 12.942240 4.508200
Ar 44.310344 7.967245 -54.796709
Ar 6.740479 3.111002 9.851473
Ar 3.596606 2.431805 -0.940269
Ar -54.624142 -15.209600 48.294766
10
Step 520 (LJ reduced units, box L=5.0)
Ar 0.198739 3.850857 0.044628
Ar 2.723906 -1.755385 4.150935
Ar 2.840669 3.178095 6.457524
Ar -2.968379 2.234103 4.151013
Ar 1.259914 3.740879 -0.477692
Ar 17.843120 13.168991 4.541369
Ar 45.153245 8.096088 -55.956612
Ar 6.781770 3.134505 9.985725
Ar 3.581187 2.391837 -0.966997
Ar -55.696952 -15.523868 49.153963
10
Step 530 (LJ reduced units, box L=5.0)
Ar 0.207983 3.877435 0.008124
Ar 2.747107 -1.802892 4.222003
Ar 2.870995 3.205501 6.551539
Ar -3.070683 2.237014 4.156888
Ar 1.219073 3.706633 -0.452135
Ar 18.127530 13.395742 4.574538
Ar 45.996146 8.224930 -57.116514
Ar 6.823062 3.158008 10.119977
Ar 3.565769 2.351869 -0.993724
Ar -56.769762 -15.838136 50.013160
10
Step 540 (LJ reduced units, box L=5.0)
Ar 0.216708 3.904194 -0.028196
Ar 2.770308 -1.850399 4.293071
Ar 2.901321 3.232906 6.645554
Ar -3.172987 2.239924 4.162763
Ar 1.178752 3.672205 -0.426761
Ar 18.411939 13.622493 4.607707
Ar 46.839046 8.353772 -58.276416
Ar 6.864353 3.181511 10.254229
Ar 3.550351 2.311901 -1.020452
Ar -57.842572 -16.152403 50.872357
10
Step 550 (LJ reduced units, box L=5.0)
Ar 0.213259 3.934066 -0.059573
Ar 2.793508 -1.897905 4.364140
Ar 2.931647 3.260312 6.739568
Ar -3.275292 2.242834 4.168638
Ar 1.150604 3.634663 -0.406330
Ar 18.696349 13.849244 4.640876
Ar 47.681947 8.482614 -59.436319
Ar 6.905645 3.205013 10.388482
Ar 3.534932 2.271933 -1.047179
Ar -58.915382 -16.466671 51.731554
10
Step 560 (LJ reduced units, box L=5.0)
Ar 0.189829 3.970307 -0.083551
Ar 2.816709 -1.945412 4.435208
Ar 2.961973 3.287718 6.833583
Ar -3.377596 2.245745 4.174513
Ar 1.142438 3.590753 -0.393299
Ar 18.980759 14.075995 4.674045
Ar 48.524848 8.611456 -60.596221
Ar 6.946936 3.228516 10.522734
Ar 3.519514 2.231965 -1.073907
Ar -59.988192 -16.780939 52.590751
10
Step 570 (LJ reduced units, box L=5.0)
Ar 0.155577 4.010680 -0.103909
Ar 2.839910 -1.992919 4.506277
Ar 2.992299 3.315123 6.927598
Ar -3.479900 2.248655 4.180388
Ar 1.145093 3.542711 -0.383889
Ar 19.265169 14.302746 4.707214
Ar 49.367749 8.740298 -61.756124
Ar 6.988228 3.252019 10.656986
Ar 3.504096 2.191997 -1.100634
Ar -61.061003 -17.095207 53.449948
10
Step 580 (LJ reduced units, box L=5.0)
Ar 0.121510 4.050879 -0.124269
Ar 2.863111 -2.040426 4.577345
Ar 3.022625 3.342529 7.021613
Ar -3.582204 2.251566 4.186263
Ar 1.147564 3.494843 -0.374475
Ar 19.549579 14.529497 4.740383
Ar 50.210650 8.869140 -62.916026
Ar 7.029519 3.275522 10.791238
Ar 3.488678 2.152028 -1.127361
Ar -62.133813 -17.409475 54.309145
10
Step 590 (LJ reduced units, box L=5.0)
Ar 0.091790 4.088704 -0.145680
Ar 2.886312 -2.087933 4.648414
Ar 3.052952 3.369935 7.115627
Ar -3.684509 2.254476 4.192138
Ar 1.145688 3.449349 -0.364011
Ar 19.833988 14.756247 4.773552
Ar 51.053550 8.997982 -64.075928
Ar 7.070811 3.299025 10.925491
Ar 3.473259 2.112060 -1.154089
Ar -63.206623 -17.723742 55.168342
10
Step 600 (LJ reduced units, box L=5.0)
Ar 0.067040 4.123517 -0.168122
Ar 2.909512 -2.135440 4.719482
Ar 3.083278 3.397340 7.209642
Ar -3.786813 2.257386 4.198013
Ar 1.138841 3.406866 -0.352516
Ar 20.118398 14.982998 4.806721
Ar 51.896451 9.126824 -65.235831
Ar 7.112102 3.322528 11.059743
Ar 3.457841 2.072092 -1.180816
Ar -64.279433 -18.038010 56.027539
10
Step 610 (LJ reduced units, box L=5.0)
Ar 0.046866 4.155277 -0.191354
Ar 2.932713 -2.182947 4.790551
Ar 3.113604 3.424746 7.303657
Ar -3.889117 2.260297 4.203888
Ar 1.127419 3.367437 -0.340230
Ar 20.402808 15.209749 4.839891
Ar 52.739352 9.255666 -66.395733
Ar 7.153394 3.346031 11.193995
Ar 3.442423 2.032124 -1.207544
Ar -65.352243 -18.352278 56.886736
10
Step 620 (LJ reduced units, box L=5.0)
Ar 0.030698 4.184122 -0.215142
Ar 2.955914 -2.230453 4.861619
Ar 3.143930 3.452151 7.397671
Ar -3.991421 2.263207 4.209763
Ar 1.111991 3.330923 -0.327389
Ar 20.687218 15.436500 4.873060
Ar 53.582253 9.384508 -67.555635
Ar 7.194685 3.369534 11.328248
Ar 3.427004 1.992156 -1.234271
Ar -66.425053 -18.666546 57.745933
10
Step 630 (LJ reduced units, box L=5.0)
Ar 0.018014 4.210222 -0.239294
Ar 2.979115 -2.277960 4.932687
Ar 3.174256 3.479557 7.491686
Ar -4.093726 2.266118 4.215638
Ar 1.093079 3.297154 -0.314184
Ar 20.971628 15.663251 4.906229
Ar 54.425153 9.513350 -68.715538
Ar 7.235977 3.393037 11.462500
Ar 3.411586 1.952188 -1.260999
Ar -67.497863 -18.980814 58.605130
10
Step 640 (LJ reduced units, box L=5.0)
Ar 0.008384 4.233732 -0.263660
Ar 3.002316 -2.325467 5.003756
Ar 3.204582 3.506963 7.585701
Ar -4.196030 2.269028 4.221513
Ar 1.071113 3.265975 -0.300764
Ar 21.256037 15.890002 4.939398
Ar 55.268054 9.642192 -69.875440
Ar 7.277268 3.416540 11.596752
Ar 3.396168 1.912220 -1.287726
Ar -68.570673 -19.295081 59.464327
10
Step 650 (LJ reduced units, box L=5.0)
Ar 0.001460 4.254781 -0.288123
Ar 3.025517 -2.372974 5.074824
Ar 3.234908 3.534368 7.679715
Ar -4.298334 2.271939 4.227388
Ar 1.046440 3.237257 -0.287248
Ar 21.540447 16.116753 4.972567
Ar 56.110955 9.771035 -71.035343
Ar 7.318560 3.440043 11.731004
Ar 3.380750 1.872251 -1.314453
Ar -69.643483 -19.609349 60.323524
10
Step 660 (LJ reduced units, box L=5.0)
Ar -0.003034 4.273465 -0.312585
Ar 3.048717 -2.420481 5.145893
Ar 3.265234 3.561774 7.773730
Ar -4.400638 2.274849 4.233263
Ar 1.019338 3.210903 -0.273732
Ar 21.824857 16.343504 5.005736
Ar 56.953856 9.899877 -72.195245
Ar 7.359851 3.463546 11.865257
Ar 3.365331 1.832283 -1.341181
Ar -70.716293 -19.923617 61.182721
10
Step 670 (LJ reduced units, box L=5.0)
Ar -0.005319 4.289855 -0.336964
Ar 3.071918 -2.467988 5.216961
Ar 3.295560 3.589180 7.867745
Ar -4.502943 2.277759 4.239138
Ar 0.990026 3.186844 -0.260300
Ar 22.109267 16.570255 5.038905
Ar 57.796756 10.028719 -73.355147
Ar 7.401143 3.487049 11.999509
Ar 3.349913 1.792315 -1.367908
Ar -71.789103 -20.237885 62.041918
10
Step 680 (LJ reduced units, box L=5.0)
Ar -0.005571 4.303994 -0.361187
Ar 3.095119 -2.515495 5.288030
Ar 3.325886 3.616585 7.961759
Ar -4.605247 2.280670 4.245013
Ar 0.958682 3.165036 -0.247024
Ar 22.393677 16.797006 5.072074
Ar 58.639657 10.157561 -74.515050
Ar 7.442434 3.510552 12.133761
Ar 3.334495 1.752347 -1.394636
Ar -72.861913 -20.552153 62.901115
10
Step 690 (LJ reduced units, box L=5.0)
Ar -0.003932 4.315899 -0.385187
Ar 3.118320 -2.563002 5.359098
Ar 3.356212 3.643991 8.055774
Ar -4.707551 2.283580 4.250888
Ar 0.925447 3.145462 -0.233971
Ar 22.678086 17.023756 5.105243
Ar 59.482558 10.286403 -75.674952
Ar 7.483726 3.534055 12.268013
Ar 3.319076 1.712379 -1.421363
Ar -73.934723 -20.866421 63.760312
10
Step 700 (LJ reduced units, box L=5.0)
Ar -0.000514 4.325565 -0.408897
Ar 3.141521 -2.610508 5.430166
Ar 3.386538 3.671396 8.149789
Ar -4.809855 2.286491 4.256763
Ar 0.890433 3.128126 -0.221207
Ar 22.962496 17.250507 5.138412
Ar 60.325459 10.415245 -76.834854
Ar 7.525017 3.557558 12.402266
Ar 3.303658 1.672411 -1.448091
Ar -75.007533 -21.180688 64.619510
10
Step 710 (LJ reduced units, box L=5.0)
Ar 0.004592 4.332962 -0.432252
Ar 3.164721 -2.658015 5.501235
Ar 3.416864 3.698802 8.243804
Ar -4.912160 2.289401 4.262638
Ar 0.853731 3.113060 -0.208799
Ar 23.246906 17.477258 5.171581
Ar 61.168359 10.544087 -77.994757
Ar 7.566309 3.581061 12.536518
Ar 3.288240 1.632443 -1.474818
Ar -76.080343 -21.494956 65.478707
10
Step 720 (LJ reduced units, box L=5.0)
Ar 0.011315 4.338035 -0.455180
Ar 3.187922 -2.705522 5.572303
Ar 3.447190 3.726208 8.337818
Ar -5.014464 2.292311 4.268513
Ar 0.815410 3.100319 -0.196817
Ar 23.531316 17.704009 5.204750
Ar 62.011260 10.672929 -79.154659
Ar 7.607600 3.604564 12.670770
Ar 3.272821 1.592474 -1.501545
Ar -77.153153 -21.809224 66.337904
10
Step 730 (LJ reduced units, box L=5.0)
Ar 0.019604 4.340698 -0.477606
Ar 3.211123 -2.753029 5.643372
Ar 3.477516 3.753613 8.431833
Ar -5.116768 2.295222 4.274388
Ar 0.775526 3.089986 -0.185338
Ar 23.815726 17.930760 5.237920
Ar 62.854161 10.801771 -80.314562
Ar 7.648892 3.628067 12.805023
Ar 3.257403 1.552506 -1.528273
Ar -78.225964 -22.123492 67.197101
10
Step 740 (LJ reduced units, box L=5.0)
Ar 0.029416 4.340838 -0.499442
Ar 3.234324 -2.800536 5.714440
Ar 3.507842 3.781019 8.525848
Ar -5.219073 2.298132 4.280263
Ar 0.734117 3.082176 -0.174449
Ar 24.100135 18.157511 5.271089
Ar 63.697062 10.930613 -81.474464
Ar 7.690183 3.651570 12.939275
Ar 3.241985 1.512538 -1.555000
Ar -79.298774 -22.437760 68.056298
10
Step 750 (LJ reduced units, box L=5.0)
Ar 0.040726 4.338303 -0.520586
Ar 3.257525 -2.848043 5.785509
Ar 3.538169 3.808425 8.619862
Ar -5.321377 2.301043 4.286138
Ar 0.691211 3.077043 -0.164252
Ar 24.384545 18.384262 5.304258
Ar 64.539962 11.059455 -82.634366
Ar 7.731475 3.675073 13.073527
Ar 3.226567 1.472570 -1.581728
Ar -80.371584 -22.752027 68.915495
10
Step 760 (LJ reduced units, box L=5.0)
Ar 0.053515 4.332895 -0.540917
Ar 3.280725 -2.895550 5.856577
Ar 3.568495 3.835830 8.713877
Ar -5.423681 2.303953 4.292013
Ar 0.646826 3.074782 -0.154867
Ar 24.668955 18.611013 5.337427
Ar 65.382863 11.188297 -83.794269
Ar 7.772766 3.698576 13.207779
Ar 3.211148 1.432602 -1.608455
Ar -81.444394 -23.066295 69.774692
10
Step 770 (LJ reduced units, box L=5.0)
Ar 0.067775 4.324363 -0.560289
Ar 3.303926 -2.943056 5.927645
Ar 3.598821 3.863236 8.807892
Ar -5.525985 2.306863 4.297888
Ar 0.600969 3.075644 -0.146442
Ar 24.953365 18.837764 5.370596
Ar 66.225764 11.317139 -84.954171
Ar 7.814058 3.722079 13.342032
Ar 3.195730 1.392634 -1.635183
Ar -82.517204 -23.380563 70.633889
10
Step 780 (LJ reduced units, box L=5.0)
Ar 0.083502 4.312390 -0.578519
Ar 3.327127 -2.990563 5.998714
Ar 3.629147 3.890641 8.901906
Ar -5.628290 2.309774 4.303763
Ar 0.553646 3.079948 -0.139159
Ar 25.237775 19.064515 5.403765
Ar 67.068665 11.445982 -86.114073
Ar 7.855349 3.745582 13.476284
Ar 3.180312 1.352666 -1.661910
Ar -83.590014 -23.694831 71.493086
10
Step 790 (LJ reduced units, box L=5.0)
Ar 0.100688 4.296580 -0.595379
Ar 3.350328 -3.038070 6.069782
Ar 3.659473 3.918047 8.995921
Ar -5.730594 2.312684 4.309638
Ar 0.504863 3.088089 -0.133246
Ar 25.522184 19.291265 5.436934
Ar 67.911565 11.574824 -87.273976
Ar 7.896641 3.769085 13.610536
Ar 3.164893 1.312697 -1.688637
Ar -84.662824 -24.009099 72.352283
10
Step 800 (LJ reduced units, box L=5.0)
Ar 0.119314 4.276454 -0.610585
Ar 3.373529 -3.085577 6.140851
Ar 3.689799 3.945453 9.089936
Ar -5.832898 2.315595 4.315513
Ar 0.454642 3.100546 -0.128986
Ar 25.806594 19.518016 5.470103
Ar 68.754466 11.703666 -88.433878
Ar 7.937933 3.792588 13.744788
Ar 3.149475 1.272729 -1.715365
Ar -85.735634 -24.323366 73.211480
10
Step 810 (LJ reduced units, box L=5.0)
Ar 0.139315 4.251483 -0.623805
Ar 3.396729 -3.133084 6.211919
Ar 3.720125 3.972858 9.183951
Ar -5.935202 2.318505 4.321388
Ar 0.403044 3.117848 -0.126713
Ar 26.091004 19.744767 5.503272
Ar 69.597367 11.832508 -89.593781
Ar 7.979224 3.816091 13.879041
Ar 3.134057 1.232761 -1.742092
Ar -86.808444 -24.637634 74.070677
10
Step 820 (LJ reduced units, box L=5.0)
Ar 0.160535 4.221256 -0.634717
Ar 3.419930 -3.180591 6.282988
Ar 3.750451 4.000264 9.277965
Ar -6.037507 2.321416 4.327263
Ar 0.350228 3.140406 -0.126748
Ar 26.375414 19.971518 5.536441
Ar 70.440268 11.961350 -90.753683
Ar 8.020516 3.839594 14.013293
Ar 3.118639 1.192793 -1.768820
Ar -87.881254 -24.951902 74.929874
10
Step 830 (LJ reduced units, box L=5.0)
Ar 0.182627 4.186110 -0.643323
Ar 3.443131 -3.228098 6.354056
Ar 3.780777 4.027670 9.371980
Ar -6.139811 2.324326 4.333137
Ar 0.296540 3.167882 -0.129089
Ar 26.659824 20.198269 5.569610
Ar 71.283169 12.090192 -91.913585
Ar 8.061807 3.863097 14.147545
Ar 3.103220 1.152825 -1.795547
Ar -88.954064 -25.266170 75.789071
10
Step 840 (LJ reduced units, box L=5.0)
Ar 0.204990 4.149081 -0.651010
Ar 3.466332 -3.275605 6.425125
Ar 3.811103 4.055075 9.465995
Ar -6.242115 2.327236 4.339012
Ar 0.242580 3.197242 -0.132348
Ar 26.944233 20.425020 5.602779